                         Program Version 5.0.3 -  RELEASE  -
|  1> ! PBEh-3c def2/J TightSCF DefGrid3
|  2>
|  3> %maxcore 60000
|  4>
|  5> %pal
|  6> nprocs 4
|  7> end
|  8>
|  9> *xyzfile 0 1 PMe3.xyz
| 10>
| 11>                          ****END OF INPUT****

CARTESIAN COORDINATES (ANGSTROEM)
---------------------------------
  P      0.046891   -0.042475   -0.230250
  C      0.105002    0.038277    1.614075
  C      1.787824   -0.582910   -0.548219
  C      0.230005    1.759685   -0.604550
  H     -0.832529    0.445237    1.994928
  H      0.228408   -0.966160    2.020903
  H      0.928025    0.662896    1.967250
  H      2.006940   -0.495579   -1.613015
  H      2.509126    0.016085    0.010816
  H      1.902870   -1.629695   -0.263086
  H      0.433652    1.896345   -1.667398
  H     -0.700703    2.276131   -0.366928
  H      1.040450    2.214347   -0.031504

 Total Charge           Charge          ....    0
 Multiplicity           Mult            ....    1
 Number of Electrons    NEL             ....   42
 Basis Dimension        Dim             ....   81

ORBITAL ENERGIES
----------------

  NO   OCC          E(Eh)            E(eV)
   0   2.0000     -77.724066     -2114.9794
   1   2.0000     -10.430143      -283.8186
   2   2.0000     -10.430120      -283.8180
   3   2.0000     -10.430048      -283.8160
   4   2.0000      -6.796641      -184.9460
   5   2.0000      -4.887504      -132.9957
   6   2.0000      -4.887501      -132.9957
   7   2.0000      -4.885205      -132.9332
   8   2.0000      -0.846062       -23.0225
   9   2.0000      -0.769088       -20.9280
  10   2.0000      -0.768883       -20.9224
  11   2.0000      -0.590649       -16.0724
  12   2.0000      -0.494444       -13.4545
  13   2.0000      -0.481508       -13.1025
  14   2.0000      -0.481049       -13.0900
  15   2.0000      -0.452096       -12.3022
  16   2.0000      -0.450739       -12.2652
  17   2.0000      -0.438528       -11.9330
  18   2.0000      -0.371377       -10.1057
  19   2.0000      -0.370735       -10.0882
  20   2.0000      -0.262126        -7.1328
  21   0.0000       0.102990         2.8025
  22   0.0000       0.103589         2.8188
  23   0.0000       0.130424         3.5490
  24   0.0000       0.166177         4.5219
  25   0.0000       0.175394         4.7727

MULLIKEN ATOMIC CHARGES
-----------------------
   0 P :    0.419856
   1 C :   -0.848361
   2 C :   -0.847367
   3 C :   -0.847906
   4 H :    0.241401
   5 H :    0.240351
   6 H :    0.226636
   7 H :    0.239921
   8 H :    0.227001
   9 H :    0.240587
  10 H :    0.240039
  11 H :    0.241141
  12 H :    0.226701
Sum of atomic charges:    0.0000000

LOEWDIN ATOMIC CHARGES
----------------------
   0 P :    0.369244
   1 C :   -0.526103
   2 C :   -0.526302
   3 C :   -0.526210
   4 H :    0.138644
   5 H :    0.138747
   6 H :    0.125842
   7 H :    0.138391
   8 H :    0.126262
   9 H :    0.138401
  10 H :    0.138486
  11 H :    0.138648
  12 H :    0.125950

  Mayer bond orders larger than 0.100000
B(  0-P ,  1-C ) :   0.9709 B(  0-P ,  2-C ) :   0.9700 B(  0-P ,  3-C ) :   0.9703
B(  1-C ,  4-H ) :   0.9146 B(  1-C ,  5-H ) :   0.9146 B(  1-C ,  6-H ) :   0.9043
B(  2-C ,  7-H ) :   0.9149 B(  2-C ,  8-H ) :   0.9046 B(  2-C ,  9-H ) :   0.9148
B(  3-C , 10-H ) :   0.9148 B(  3-C , 11-H ) :   0.9147 B(  3-C , 12-H ) :   0.9045

Dispersion correction           -0.005544418
FINAL SINGLE POINT ENERGY      -460.436970672838

DIPOLE MOMENT
-------------
                                X             Y             Z
Electronic contribution:     -3.19737      -2.16233      -1.85654
Nuclear contribution   :      3.58328       2.42446       2.08346
                        -----------------------------------------
Total Dipole Moment    :      0.38592       0.26214       0.22692
                        -----------------------------------------
Magnitude (a.u.)       :      0.51879
Magnitude (Debye)      :      1.31866

Rotational constants in cm-1:     0.193286     0.192806     0.124342
Rotational constants in MHz :  5794.571552  5780.190759  3727.674821

                             ****ORCA TERMINATED NORMALLY****
TOTAL RUN TIME: 0 days 0 hours 0 minutes 56 seconds 162 msec
