                         Program Version 5.0.3 -  RELEASE  -
|  1> ! PBEh-3c def2/J TightSCF DefGrid3
|  2>
|  3> %maxcore 60000
|  4>
|  5> %pal
|  6> nprocs 4
|  7> end
|  8>
|  9> *xyzfile 0 2 P44.xyz
| 10>
| 11>                          ****END OF INPUT****

CARTESIAN COORDINATES (ANGSTROEM)
---------------------------------
  C      0.704785    1.316898    0.000000
  C      0.000000    0.000000    0.000000
  C     -1.492860   -0.048087    0.000000
  C      0.788074   -1.268811    0.000000
  H      0.002413    2.153564    0.000000
  H      1.358245    1.434398    0.878243
  H      1.358245    1.434398   -0.878243
  H     -1.866247   -1.074692    0.000000
  H     -1.921347    0.459076   -0.878243
  H     -1.921347    0.459076    0.878243
  H      1.863834   -1.078871    0.000000
  H      0.563103   -1.893474   -0.878243
  H      0.563103   -1.893474    0.878243

 Total Charge           Charge          ....    0
 Multiplicity           Mult            ....    2
 Number of Electrons    NEL             ....   33
 Basis Dimension        Dim             ....   78

ORBITAL ENERGIES
----------------
                 SPIN UP ORBITALS
  NO   OCC          E(Eh)            E(eV)
   0   1.0000     -10.441134      -284.1177
   1   1.0000     -10.423747      -283.6446
   2   1.0000     -10.423743      -283.6445
   3   1.0000     -10.423663      -283.6423
   4   1.0000      -0.890737       -24.2382
   5   1.0000      -0.769199       -20.9310
   6   1.0000      -0.769198       -20.9309
   7   1.0000      -0.602706       -16.4005
   8   1.0000      -0.500024       -13.6063
   9   1.0000      -0.494320       -13.4511
  10   1.0000      -0.494317       -13.4511
  11   1.0000      -0.437919       -11.9164
  12   1.0000      -0.437917       -11.9163
  13   1.0000      -0.416859       -11.3433
  14   1.0000      -0.392207       -10.6725
  15   1.0000      -0.392206       -10.6725
  16   1.0000      -0.206931        -5.6309
  17   0.0000       0.142438         3.8759
  18   0.0000       0.196276         5.3409
  19   0.0000       0.196277         5.3410
  20   0.0000       0.196671         5.3517
  21   0.0000       0.203177         5.5287

                 SPIN DOWN ORBITALS
  NO   OCC          E(Eh)            E(eV)
   0   1.0000     -10.425204      -283.6842
   1   1.0000     -10.425127      -283.6821
   2   1.0000     -10.425123      -283.6820
   3   1.0000     -10.424710      -283.6708
   4   1.0000      -0.867565       -23.6076
   5   1.0000      -0.766640       -20.8613
   6   1.0000      -0.766639       -20.8613
   7   1.0000      -0.576868       -15.6974
   8   1.0000      -0.489692       -13.3252
   9   1.0000      -0.489690       -13.3251
  10   1.0000      -0.471830       -12.8391
  11   1.0000      -0.429456       -11.6861
  12   1.0000      -0.429455       -11.6861
  13   1.0000      -0.415270       -11.3001
  14   1.0000      -0.386486       -10.5168
  15   1.0000      -0.386485       -10.5168
  16   0.0000       0.019830         0.5396
  17   0.0000       0.144270         3.9258
  18   0.0000       0.199955         5.4411
  19   0.0000       0.199957         5.4411
  20   0.0000       0.205691         5.5971

MULLIKEN ATOMIC CHARGES AND SPIN POPULATIONS
--------------------------------------------
   0 C :   -0.691384   -0.103935
   1 C :    0.093932    1.037617
   2 C :   -0.691436   -0.103942
   3 C :   -0.691435   -0.103941
   4 H :    0.221170    0.002089
   5 H :    0.219458    0.044655
   6 H :    0.219458    0.044655
   7 H :    0.221174    0.002088
   8 H :    0.219472    0.044658
   9 H :    0.219472    0.044658
  10 H :    0.221177    0.002088
  11 H :    0.219471    0.044656
  12 H :    0.219471    0.044656
Sum of atomic charges         :    0.0000000

LOEWDIN ATOMIC CHARGES AND SPIN POPULATIONS
-------------------------------------------
   0 C :   -0.361936   -0.031490
   1 C :   -0.087551    0.857960
   2 C :   -0.361953   -0.031490
   3 C :   -0.361955   -0.031489
   4 H :    0.130155    0.001462
   5 H :    0.130485    0.038687
   6 H :    0.130485    0.038687
   7 H :    0.130156    0.001462
   8 H :    0.130490    0.038688
   9 H :    0.130490    0.038688
  10 H :    0.130156    0.001462
  11 H :    0.130489    0.038686
  12 H :    0.130489    0.038687

  Mayer bond orders larger than 0.100000
B(  0-C ,  1-C ) :   0.9889 B(  0-C ,  4-H ) :   0.9325 B(  0-C ,  5-H ) :   0.9163
B(  0-C ,  6-H ) :   0.9163 B(  1-C ,  2-C ) :   0.9889 B(  1-C ,  3-C ) :   0.9889
B(  2-C ,  7-H ) :   0.9325 B(  2-C ,  8-H ) :   0.9163 B(  2-C ,  9-H ) :   0.9163
B(  3-C , 10-H ) :   0.9325 B(  3-C , 11-H ) :   0.9163 B(  3-C , 12-H ) :   0.9163

Dispersion correction           -0.004742899
FINAL SINGLE POINT ENERGY      -157.447289343030

DIPOLE MOMENT
-------------
                                X             Y             Z
Electronic contribution:      0.00000       0.00005       0.00000
Nuclear contribution   :      0.00000      -0.00000       0.00000
                        -----------------------------------------
Total Dipole Moment    :      0.00000       0.00005       0.00000
                        -----------------------------------------
Magnitude (a.u.)       :      0.00005
Magnitude (Debye)      :      0.00014

Rotational constants in cm-1:     0.264759     0.264759     0.142845
Rotational constants in MHz :  7937.268188  7937.267835  4282.381194

                             ****ORCA TERMINATED NORMALLY****
TOTAL RUN TIME: 0 days 0 hours 2 minutes 32 seconds 360 msec
