                         Program Version 5.0.3 -  RELEASE  -
|  1> ! PBEh-3c def2/J TightSCF DefGrid3
|  2>
|  3> %maxcore 60000
|  4>
|  5> %pal
|  6> nprocs 4
|  7> end
|  8>
|  9> *xyzfile 0 1 H_g+t+g-.xyz
| 10>
| 11>                          ****END OF INPUT****

CARTESIAN COORDINATES (ANGSTROEM)
---------------------------------
  C     -0.488474   -0.078965    2.709806
  C      0.715151    0.198421    1.816343
  C      0.557995   -0.337484    0.394779
  C     -0.557995    0.337484   -0.394779
  C     -0.715151   -0.198421   -1.816343
  C      0.488474    0.078965   -2.709806
  H     -0.708012   -1.146816    2.737488
  H     -1.380522    0.434747    2.356559
  H     -0.303773    0.249678    3.731408
  H      1.603000   -0.248732    2.266726
  H      0.900418    1.274457    1.773291
  H      0.365775   -1.414388    0.435571
  H      1.504136   -0.211270   -0.133700
  H     -0.365775    1.414388   -0.435571
  H     -1.504136    0.211270    0.133700
  H     -1.603000    0.248732   -2.266726
  H     -0.900418   -1.274457   -1.773291
  H      0.303773   -0.249678   -3.731408
  H      1.380522   -0.434747   -2.356559
  H      0.708012    1.146816   -2.737488

 Total Charge           Charge          ....    0
 Multiplicity           Mult            ....    1
 Number of Electrons    NEL             ....   50
 Basis Dimension        Dim             ....  118

ORBITAL ENERGIES
----------------

  NO   OCC          E(Eh)            E(eV)
   0   2.0000     -10.427029      -283.7339
   1   2.0000     -10.426996      -283.7330
   2   2.0000     -10.424574      -283.6671
   3   2.0000     -10.424344      -283.6608
   4   2.0000     -10.418188      -283.4933
   5   2.0000     -10.418186      -283.4933
   6   2.0000      -0.898368       -24.4458
   7   2.0000      -0.853106       -23.2142
   8   2.0000      -0.784456       -21.3461
   9   2.0000      -0.727294       -19.7907
  10   2.0000      -0.661341       -17.9960
  11   2.0000      -0.626611       -17.0510
  12   2.0000      -0.525880       -14.3099
  13   2.0000      -0.508516       -13.8374
  14   2.0000      -0.506670       -13.7872
  15   2.0000      -0.467990       -12.7347
  16   2.0000      -0.460325       -12.5261
  17   2.0000      -0.444272       -12.0893
  18   2.0000      -0.414577       -11.2812
  19   2.0000      -0.403174       -10.9709
  20   2.0000      -0.395217       -10.7544
  21   2.0000      -0.379754       -10.3336
  22   2.0000      -0.365161        -9.9365
  23   2.0000      -0.360960        -9.8222
  24   2.0000      -0.351438        -9.5631
  25   0.0000       0.137955         3.7539
  26   0.0000       0.154304         4.1988
  27   0.0000       0.167990         4.5712
  28   0.0000       0.186369         5.0714
  29   0.0000       0.191512         5.2113

MULLIKEN ATOMIC CHARGES
-----------------------
   0 C :   -0.645982
   1 C :   -0.413949
   2 C :   -0.413720
   3 C :   -0.413720
   4 C :   -0.413949
   5 C :   -0.645982
   6 H :    0.207817
   7 H :    0.213099
   8 H :    0.220334
   9 H :    0.213826
  10 H :    0.204510
  11 H :    0.198667
  12 H :    0.215397
  13 H :    0.198667
  14 H :    0.215398
  15 H :    0.213826
  16 H :    0.204510
  17 H :    0.220334
  18 H :    0.213099
  19 H :    0.207817
Sum of atomic charges:    0.0000000

LOEWDIN ATOMIC CHARGES
----------------------
   0 C :   -0.365007
   1 C :   -0.245298
   2 C :   -0.242497
   3 C :   -0.242497
   4 C :   -0.245298
   5 C :   -0.365007
   6 H :    0.122933
   7 H :    0.122899
   8 H :    0.126523
   9 H :    0.121815
  10 H :    0.119272
  11 H :    0.117721
  12 H :    0.121640
  13 H :    0.117721
  14 H :    0.121640
  15 H :    0.121815
  16 H :    0.119272
  17 H :    0.126523
  18 H :    0.122899
  19 H :    0.122933

  Mayer bond orders larger than 0.100000
B(  0-C ,  1-C ) :   0.9910 B(  0-C ,  6-H ) :   0.9295 B(  0-C ,  7-H ) :   0.9267
B(  0-C ,  8-H ) :   0.9310 B(  1-C ,  2-C ) :   0.9927 B(  1-C ,  9-H ) :   0.9259
B(  1-C , 10-H ) :   0.9202 B(  2-C ,  3-C ) :   0.9779 B(  2-C , 11-H ) :   0.9187
B(  2-C , 12-H ) :   0.9204 B(  3-C ,  4-C ) :   0.9927 B(  3-C , 13-H ) :   0.9187
B(  3-C , 14-H ) :   0.9204 B(  4-C ,  5-C ) :   0.9910 B(  4-C , 15-H ) :   0.9259
B(  4-C , 16-H ) :   0.9202 B(  5-C , 17-H ) :   0.9310 B(  5-C , 18-H ) :   0.9267
B(  5-C , 19-H ) :   0.9295

Dispersion correction           -0.008944282
FINAL SINGLE POINT ENERGY      -236.560075122671

DIPOLE MOMENT
-------------
                                X             Y             Z
Electronic contribution:     -0.00000      -0.00000       0.00000
Nuclear contribution   :      0.00000      -0.00000      -0.00000
                        -----------------------------------------
Total Dipole Moment    :     -0.00000      -0.00000       0.00000
                        -----------------------------------------
Magnitude (a.u.)       :      0.00000
Magnitude (Debye)      :      0.00000

Rotational constants in cm-1:     0.297454     0.048805     0.045187
Rotational constants in MHz :  8917.438864  1463.128524  1354.685435

                             ****ORCA TERMINATED NORMALLY****
TOTAL RUN TIME: 0 days 0 hours 1 minutes 31 seconds 118 msec
