                         Program Version 5.0.3 -  RELEASE  -
|  1> ! PBEh-3c def2/J TightSCF DefGrid3
|  2>
|  3> %maxcore 60000
|  4>
|  5> %pal
|  6> nprocs 4
|  7> end
|  8>
|  9> *xyzfile 0 2 hch3clts.xyz
| 10>
| 11>                          ****END OF INPUT****

CARTESIAN COORDINATES (ANGSTROEM)
---------------------------------
  H     -0.015145   -2.806530    0.000000
  Cl     0.002996   -1.167086    0.000000
  C      0.002996    0.780207    0.000000
  H     -1.041059    1.064682    0.000000
  H      0.525106    1.064364    0.904284
  H      0.525106    1.064364   -0.904284

 Total Charge           Charge          ....    0
 Multiplicity           Mult            ....    2
 Number of Electrons    NEL             ....   27
 Basis Dimension        Dim             ....   41

ORBITAL ENERGIES
----------------
                 SPIN UP ORBITALS
  NO   OCC          E(Eh)            E(eV)
   0   1.0000    -102.296315     -2783.6243
   1   1.0000     -10.486289      -285.3464
   2   1.0000      -9.760650      -265.6008
   3   1.0000      -7.447886      -202.6673
   4   1.0000      -7.438960      -202.4244
   5   1.0000      -7.438959      -202.4244
   6   1.0000      -0.920617       -25.0513
   7   1.0000      -0.777579       -21.1590
   8   1.0000      -0.512946       -13.9580
   9   1.0000      -0.503879       -13.7113
  10   1.0000      -0.503856       -13.7106
  11   1.0000      -0.354701        -9.6519
  12   1.0000      -0.354691        -9.6516
  13   1.0000      -0.269406        -7.3309
  14   0.0000       0.065970         1.7951
  15   0.0000       0.156782         4.2662
  16   0.0000       0.199050         5.4164
  17   0.0000       0.199053         5.4165
  18   0.0000       0.477331        12.9888

                 SPIN DOWN ORBITALS
  NO   OCC          E(Eh)            E(eV)
   0   1.0000    -102.295978     -2783.6151
   1   1.0000     -10.477721      -285.1133
   2   1.0000      -9.759285      -265.5636
   3   1.0000      -7.451231      -202.7583
   4   1.0000      -7.437971      -202.3975
   5   1.0000      -7.437971      -202.3975
   6   1.0000      -0.910151       -24.7665
   7   1.0000      -0.758544       -20.6410
   8   1.0000      -0.497680       -13.5426
   9   1.0000      -0.497667       -13.5422
  10   1.0000      -0.469460       -12.7747
  11   1.0000      -0.349137        -9.5005
  12   1.0000      -0.349129        -9.5003
  13   0.0000      -0.058143        -1.5821
  14   0.0000       0.127426         3.4674
  15   0.0000       0.162551         4.4232
  16   0.0000       0.203909         5.5486
  17   0.0000       0.203912         5.5487

MULLIKEN ATOMIC CHARGES AND SPIN POPULATIONS
--------------------------------------------
   0 H :    0.069540    0.698790
   1 Cl:   -0.202898   -0.113811
   2 C :   -0.641686    0.460194
   3 H :    0.258332   -0.015276
   4 H :    0.258356   -0.014949
   5 H :    0.258356   -0.014949
Sum of atomic charges         :    0.0000000

LOEWDIN ATOMIC CHARGES AND SPIN POPULATIONS
-------------------------------------------
   0 H :    0.026800    0.629523
   1 Cl:   -0.051715    0.007378
   2 C :   -0.397519    0.389637
   3 H :    0.140774   -0.008989
   4 H :    0.140830   -0.008774
   5 H :    0.140830   -0.008774

  Mayer bond orders larger than 0.100000
B(  0-H ,  1-Cl) :   0.3289 B(  0-H ,  2-C ) :   0.1309 B(  1-Cl,  2-C ) :   0.6748
B(  2-C ,  3-H ) :   0.9031 B(  2-C ,  4-H ) :   0.9031 B(  2-C ,  5-H ) :   0.9031

Dispersion correction           -0.001398633
FINAL SINGLE POINT ENERGY      -499.998854188407

DIPOLE MOMENT
-------------
                                X             Y             Z
Electronic contribution:      0.01393      -2.79463      -0.00000
Nuclear contribution   :     -0.01602       3.40934       0.00000
                        -----------------------------------------
Total Dipole Moment    :     -0.00208       0.61471      -0.00000
                        -----------------------------------------
Magnitude (a.u.)       :      0.61472
Magnitude (Debye)      :      1.56248

Rotational constants in cm-1:     5.112770     0.342593     0.342593
Rotational constants in MHz : 153276.997967 10270.693710 10270.677988

                             ****ORCA TERMINATED NORMALLY****
TOTAL RUN TIME: 0 days 0 hours 0 minutes 15 seconds 709 msec
