                         Program Version 5.0.3 -  RELEASE  -
|  1> ! PBEh-3c def2/J TightSCF DefGrid3
|  2>
|  3> %maxcore 60000
|  4>
|  5> %pal
|  6> nprocs 4
|  7> end
|  8>
|  9> *xyzfile 0 1 ts5.xyz
| 10>
| 11>                          ****END OF INPUT****

CARTESIAN COORDINATES (ANGSTROEM)
---------------------------------
  B      0.000000    0.000000   -2.375989
  H      0.590537    1.022839   -2.593642
  H      0.590537   -1.022839   -2.593642
  H     -1.181073    0.000000   -2.593642
  P     -0.000000    0.000000    1.768417
  H      0.616501    1.067811    2.422536
  H      0.616501   -1.067811    2.422536
  H     -1.233002    0.000000    2.422536
  H      0.000000    0.000000   -1.007028
  H     -0.000000    0.000000   -0.147544

 Total Charge           Charge          ....    0
 Multiplicity           Mult            ....    1
 Number of Electrons    NEL             ....   28
 Basis Dimension        Dim             ....   49

ORBITAL ENERGIES
----------------

  NO   OCC          E(Eh)            E(eV)
   0   2.0000     -77.780619     -2116.5182
   1   2.0000      -6.903999      -187.8674
   2   2.0000      -6.864763      -186.7997
   3   2.0000      -4.954856      -134.8285
   4   2.0000      -4.954855      -134.8285
   5   2.0000      -4.953104      -134.7808
   6   2.0000      -0.778306       -21.1788
   7   2.0000      -0.599741       -16.3198
   8   2.0000      -0.499736       -13.5985
   9   2.0000      -0.499736       -13.5985
  10   2.0000      -0.476534       -12.9671
  11   2.0000      -0.339705        -9.2438
  12   2.0000      -0.339704        -9.2438
  13   2.0000      -0.329373        -8.9627
  14   0.0000       0.018722         0.5095
  15   0.0000       0.028359         0.7717
  16   0.0000       0.028359         0.7717
  17   0.0000       0.110639         3.0106
  18   0.0000       0.204071         5.5530

MULLIKEN ATOMIC CHARGES
-----------------------
   0 B :   -0.404266
   1 H :    0.043581
   2 H :    0.043581
   3 H :    0.043599
   4 P :   -0.186975
   5 H :    0.128943
   6 H :    0.128943
   7 H :    0.128932
   8 H :   -0.061544
   9 H :    0.135204
Sum of atomic charges:    0.0000000

LOEWDIN ATOMIC CHARGES
----------------------
   0 B :   -0.409850
   1 H :    0.009368
   2 H :    0.009368
   3 H :    0.009374
   4 P :    0.042586
   5 H :    0.060559
   6 H :    0.060559
   7 H :    0.060552
   8 H :   -0.003678
   9 H :    0.161163

  Mayer bond orders larger than 0.100000
B(  0-B ,  1-H ) :   0.9847 B(  0-B ,  2-H ) :   0.9847 B(  0-B ,  3-H ) :   0.9846
B(  0-B ,  8-H ) :   0.3163 B(  0-B ,  9-H ) :   0.1146 B(  4-P ,  5-H ) :   0.9524
B(  4-P ,  6-H ) :   0.9524 B(  4-P ,  7-H ) :   0.9525 B(  4-P ,  9-H ) :   0.2210
B(  8-H ,  9-H ) :   0.6094

Dispersion correction           -0.002559361
FINAL SINGLE POINT ENERGY      -370.418750717541

DIPOLE MOMENT
-------------
                                X             Y             Z
Electronic contribution:     -0.00002      -0.00000       7.18542
Nuclear contribution   :      0.00000       0.00000      -4.56856
                        -----------------------------------------
Total Dipole Moment    :     -0.00002      -0.00000       2.61686
                        -----------------------------------------
Magnitude (a.u.)       :      2.61686
Magnitude (Debye)      :      6.65154

Rotational constants in cm-1:     1.912241     0.090457     0.090457
Rotational constants in MHz : 57327.556198  2711.830680  2711.830678

                             ****ORCA TERMINATED NORMALLY****
TOTAL RUN TIME: 0 days 0 hours 0 minutes 52 seconds 148 msec
