                         Program Version 5.0.3 -  RELEASE  -
|  1> ! PBEh-3c def2/J TightSCF DefGrid3
|  2>
|  3> %maxcore 60000
|  4>
|  5> %pal
|  6> nprocs 4
|  7> end
|  8>
|  9> *xyzfile 0 1 methylcyclohexa-13-diene.xyz
| 10>
| 11>                          ****END OF INPUT****

CARTESIAN COORDINATES (ANGSTROEM)
---------------------------------
  C     -1.072487   -1.730925   -0.280284
  C      0.404837   -1.603517   -0.552916
  C      0.817576   -0.139818   -0.768863
  C      0.187206    0.800870    0.238838
  C     -1.032259    0.492889    0.734058
  C     -1.725728   -0.732327    0.345801
  H      1.914664   -0.048565   -0.746379
  H      0.958431   -2.021254    0.312164
  H      0.700713   -2.211678   -1.420703
  H     -1.582465   -2.661956   -0.535226
  H     -1.533595    1.184197    1.416489
  H     -2.784235   -0.834045    0.594602
  H      0.507431    0.189842   -1.780959
  C      0.907968    2.075254    0.554811
  H      0.327192    2.715195    1.232576
  H      1.887701    1.877369    1.021413
  H      1.117052    2.648470   -0.365422

 Total Charge           Charge          ....    0
 Multiplicity           Mult            ....    1
 Number of Electrons    NEL             ....   52
 Basis Dimension        Dim             ....  125

ORBITAL ENERGIES
----------------

  NO   OCC          E(Eh)            E(eV)
   0   2.0000     -10.451951      -284.4120
   1   2.0000     -10.440926      -284.1121
   2   2.0000     -10.440408      -284.0980
   3   2.0000     -10.439209      -284.0653
   4   2.0000     -10.437090      -284.0077
   5   2.0000     -10.434578      -283.9393
   6   2.0000     -10.433249      -283.9031
   7   2.0000      -0.934856       -25.4387
   8   2.0000      -0.853482       -23.2244
   9   2.0000      -0.823903       -22.4195
  10   2.0000      -0.760395       -20.6914
  11   2.0000      -0.692302       -18.8385
  12   2.0000      -0.638661       -17.3788
  13   2.0000      -0.558830       -15.2065
  14   2.0000      -0.537841       -14.6354
  15   2.0000      -0.499902       -13.6030
  16   2.0000      -0.498022       -13.5519
  17   2.0000      -0.463118       -12.6021
  18   2.0000      -0.455479       -12.3942
  19   2.0000      -0.446636       -12.1536
  20   2.0000      -0.428018       -11.6469
  21   2.0000      -0.410645       -11.1742
  22   2.0000      -0.375295       -10.2123
  23   2.0000      -0.364401        -9.9158
  24   2.0000      -0.344356        -9.3704
  25   2.0000      -0.240305        -6.5390
  26   0.0000       0.004425         0.1204
  27   0.0000       0.115642         3.1468
  28   0.0000       0.143724         3.9109
  29   0.0000       0.169794         4.6203
  30   0.0000       0.181100         4.9280

MULLIKEN ATOMIC CHARGES
-----------------------
   0 C :   -0.228324
   1 C :   -0.460741
   2 C :   -0.477253
   3 C :    0.109250
   4 C :   -0.258462
   5 C :   -0.193955
   6 H :    0.222266
   7 H :    0.227313
   8 H :    0.223021
   9 H :    0.216417
  10 H :    0.205669
  11 H :    0.212938
  12 H :    0.228640
  13 C :   -0.698035
  14 H :    0.226657
  15 H :    0.222689
  16 H :    0.221909
Sum of atomic charges:   -0.0000000

LOEWDIN ATOMIC CHARGES
----------------------
   0 C :   -0.147417
   1 C :   -0.234543
   2 C :   -0.226691
   3 C :   -0.048692
   4 C :   -0.170738
   5 C :   -0.152309
   6 H :    0.129941
   7 H :    0.133687
   8 H :    0.131090
   9 H :    0.131323
  10 H :    0.130440
  11 H :    0.132873
  12 H :    0.135750
  13 C :   -0.347098
  14 H :    0.134070
  15 H :    0.133879
  16 H :    0.134436

  Mayer bond orders larger than 0.100000
B(  0-C ,  1-C ) :   0.9904 B(  0-C ,  5-C ) :   1.8309 B(  0-C ,  9-H ) :   0.9233
B(  1-C ,  2-C ) :   0.9858 B(  1-C ,  7-H ) :   0.9026 B(  1-C ,  8-H ) :   0.9195
B(  2-C ,  3-C ) :   0.9658 B(  2-C ,  6-H ) :   0.9207 B(  2-C , 12-H ) :   0.9006
B(  3-C ,  4-C ) :   1.7925 B(  3-C , 13-C ) :   0.9801 B(  4-C ,  5-C ) :   1.1040
B(  4-C , 10-H ) :   0.9202 B(  5-C , 11-H ) :   0.9191 B( 13-C , 14-H ) :   0.9307
B( 13-C , 15-H ) :   0.9138 B( 13-C , 16-H ) :   0.9150

Dispersion correction           -0.008684740
FINAL SINGLE POINT ENERGY      -272.133037197213

DIPOLE MOMENT
-------------
                                X             Y             Z
Electronic contribution:     -2.84056      -1.64795       0.46433
Nuclear contribution   :      3.07799       1.70405      -0.55226
                        -----------------------------------------
Total Dipole Moment    :      0.23742       0.05610      -0.08792
                        -----------------------------------------
Magnitude (a.u.)       :      0.25932
Magnitude (Debye)      :      0.65914

Rotational constants in cm-1:     0.163535     0.078804     0.055863
Rotational constants in MHz :  4902.659688  2362.476674  1674.734861

                             ****ORCA TERMINATED NORMALLY****
TOTAL RUN TIME: 0 days 0 hours 1 minutes 50 seconds 941 msec
