                         Program Version 5.0.3 -  RELEASE  -
|  1> ! PBEh-3c def2/J TightSCF DefGrid3
|  2>
|  3> %maxcore 60000
|  4>
|  5> %pal
|  6> nprocs 4
|  7> end
|  8>
|  9> *xyzfile 0 2 18.xyz
| 10>
| 11>                          ****END OF INPUT****

CARTESIAN COORDINATES (ANGSTROEM)
---------------------------------
  B      1.799558   -0.047548   -0.187121
  O     -1.499069    1.161776   -1.158662
  F      3.050563   -0.262492   -0.642202
  B     -0.903082   -1.086164    0.820505
  H      0.840519   -2.556803   -0.258269
  H      1.876859    2.015536    0.172362
  B      0.614282   -1.422624    0.055566
  H     -1.117163   -1.321192    1.975083
  H      1.550029   -1.071317    0.824670
  H      0.867522   -0.773839   -1.008460
  Al    -0.521065    1.153461    0.542108
  H     -1.241003    2.310240    1.351498
  H     -2.163004    1.865259   -1.254964
  N      1.259249    1.212739    0.159152
  Cl    -2.427520   -1.454205   -0.230255
  H     -1.986673    0.277174   -1.161011

 Total Charge           Charge          ....    0
 Multiplicity           Mult            ....    2
 Number of Electrons    NEL             ....   77
 Basis Dimension        Dim             ....  142

ORBITAL ENERGIES
----------------
                 SPIN UP ORBITALS
  NO   OCC          E(Eh)            E(eV)
   0   1.0000    -102.290834     -2783.4751
   1   1.0000     -56.628846     -1540.9492
   2   1.0000     -25.095090      -682.8721
   3   1.0000     -19.598424      -533.3002
   4   1.0000     -14.613292      -397.6479
   5   1.0000      -9.756981      -265.5009
   6   1.0000      -7.441905      -202.5045
   7   1.0000      -7.439449      -202.4377
   8   1.0000      -7.437115      -202.3742
   9   1.0000      -7.059520      -192.0993
  10   1.0000      -6.967592      -189.5978
  11   1.0000      -6.946465      -189.0229
  12   1.0000      -4.363116      -118.7264
  13   1.0000      -2.854569       -77.6768
  14   1.0000      -2.852693       -77.6257
  15   1.0000      -2.849084       -77.5275
  16   1.0000      -1.324249       -36.0347
  17   1.0000      -1.216552       -33.1041
  18   1.0000      -0.938405       -25.5353
  19   1.0000      -0.905494       -24.6398
  20   1.0000      -0.725587       -19.7442
  21   1.0000      -0.693649       -18.8752
  22   1.0000      -0.615041       -16.7361
  23   1.0000      -0.592837       -16.1319
  24   1.0000      -0.563766       -15.3408
  25   1.0000      -0.555103       -15.1051
  26   1.0000      -0.539400       -14.6778
  27   1.0000      -0.518346       -14.1049
  28   1.0000      -0.502511       -13.6740
  29   1.0000      -0.454256       -12.3609
  30   1.0000      -0.451485       -12.2855
  31   1.0000      -0.424255       -11.5446
  32   1.0000      -0.411581       -11.1997
  33   1.0000      -0.395826       -10.7710
  34   1.0000      -0.387304       -10.5391
  35   1.0000      -0.376896       -10.2559
  36   1.0000      -0.332271        -9.0416
  37   1.0000      -0.323720        -8.8089
  38   1.0000      -0.254954        -6.9377
  39   0.0000       0.017415         0.4739
  40   0.0000       0.051548         1.4027
  41   0.0000       0.060231         1.6390
  42   0.0000       0.070268         1.9121
  43   0.0000       0.104249         2.8368

                 SPIN DOWN ORBITALS
  NO   OCC          E(Eh)            E(eV)
   0   1.0000    -102.290243     -2783.4590
   1   1.0000     -56.627131     -1540.9026
   2   1.0000     -25.095143      -682.8736
   3   1.0000     -19.598083      -533.2910
   4   1.0000     -14.612900      -397.6372
   5   1.0000      -9.756407      -265.4853
   6   1.0000      -7.441692      -202.4987
   7   1.0000      -7.437790      -202.3926
   8   1.0000      -7.436230      -202.3501
   9   1.0000      -7.059620      -192.1020
  10   1.0000      -6.961640      -189.4359
  11   1.0000      -6.945273      -188.9905
  12   1.0000      -4.360504      -118.6553
  13   1.0000      -2.852506       -77.6206
  14   1.0000      -2.848349       -77.5075
  15   1.0000      -2.847228       -77.4770
  16   1.0000      -1.324377       -36.0381
  17   1.0000      -1.215677       -33.0803
  18   1.0000      -0.937296       -25.5051
  19   1.0000      -0.900615       -24.5070
  20   1.0000      -0.722753       -19.6671
  21   1.0000      -0.692543       -18.8451
  22   1.0000      -0.609622       -16.5887
  23   1.0000      -0.591096       -16.0845
  24   1.0000      -0.556525       -15.1438
  25   1.0000      -0.542231       -14.7549
  26   1.0000      -0.536945       -14.6110
  27   1.0000      -0.513264       -13.9666
  28   1.0000      -0.499592       -13.5946
  29   1.0000      -0.451324       -12.2812
  30   1.0000      -0.449409       -12.2290
  31   1.0000      -0.413619       -11.2552
  32   1.0000      -0.406122       -11.0511
  33   1.0000      -0.386930       -10.5289
  34   1.0000      -0.375434       -10.2161
  35   1.0000      -0.369444       -10.0531
  36   1.0000      -0.326333        -8.8800
  37   1.0000      -0.318075        -8.6553
  38   0.0000      -0.087015        -2.3678
  39   0.0000       0.021991         0.5984
  40   0.0000       0.053977         1.4688
  41   0.0000       0.065335         1.7779
  42   0.0000       0.079607         2.1662

MULLIKEN ATOMIC CHARGES AND SPIN POPULATIONS
--------------------------------------------
   0 B :    0.453575   -0.007893
   1 O :   -0.801971    0.005326
   2 F :   -0.269293   -0.000706
   3 B :   -0.284122    0.594870
   4 H :    0.131701    0.038039
   5 H :    0.366335    0.001081
   6 B :   -0.371015    0.020393
   7 H :    0.091119   -0.026218
   8 H :    0.083642   -0.001671
   9 H :    0.066298    0.002854
  10 Al:    0.780980    0.279274
  11 H :   -0.101952    0.033573
  12 H :    0.491316    0.000611
  13 N :   -0.820719    0.014061
  14 Cl:   -0.291802    0.044930
  15 H :    0.475908    0.001478
Sum of atomic charges         :    0.0000000

LOEWDIN ATOMIC CHARGES AND SPIN POPULATIONS
-------------------------------------------
   0 B :    0.134347   -0.003658
   1 O :   -0.404592    0.008037
   2 F :   -0.151084   -0.000949
   3 B :   -0.351227    0.502101
   4 H :    0.071414    0.034214
   5 H :    0.274054    0.001265
   6 B :   -0.381156    0.067767
   7 H :    0.041623   -0.006923
   8 H :    0.138128   -0.001404
   9 H :    0.134181    0.004245
  10 Al:    0.351383    0.285414
  11 H :   -0.082984    0.027852
  12 H :    0.360482    0.000686
  13 N :   -0.436799    0.012333
  14 Cl:   -0.026782    0.066103
  15 H :    0.329012    0.002917

  Mayer bond orders larger than 0.100000
B(  0-B ,  2-F ) :   1.1377 B(  0-B ,  6-B ) :   0.4564 B(  0-B ,  8-H ) :   0.3091
B(  0-B ,  9-H ) :   0.3236 B(  0-B , 13-N ) :   1.2152 B(  1-O , 10-Al) :   0.4548
B(  1-O , 12-H ) :   0.7336 B(  1-O , 15-H ) :   0.6011 B(  3-B ,  6-B ) :   0.8948
B(  3-B ,  7-H ) :   0.9607 B(  3-B , 10-Al) :   0.5329 B(  3-B , 14-Cl) :   0.8563
B(  4-H ,  6-B ) :   0.9587 B(  5-H , 13-N ) :   0.8129 B(  6-B ,  8-H ) :   0.5694
B(  6-B ,  9-H ) :   0.5597 B( 10-Al, 11-H ) :   0.9398 B( 10-Al, 13-N ) :   0.8889
B( 14-Cl, 15-H ) :   0.1924

Dispersion correction           -0.008427408
FINAL SINGLE POINT ENERGY     -1010.484438375890

DIPOLE MOMENT
-------------
                                X             Y             Z
Electronic contribution:      0.46074      -2.44058      -1.33919
Nuclear contribution   :     -1.08177       4.03666       0.66933
                        -----------------------------------------
Total Dipole Moment    :     -0.62103       1.59609      -0.66985
                        -----------------------------------------
Magnitude (a.u.)       :      1.83899
Magnitude (Debye)      :      4.67433

Rotational constants in cm-1:     0.067961     0.028784     0.023377
Rotational constants in MHz :  2037.418600   862.932467   700.828124

                             ****ORCA TERMINATED NORMALLY****
TOTAL RUN TIME: 0 days 0 hours 3 minutes 10 seconds 636 msec
