                         Program Version 5.0.3 -  RELEASE  -
|  1> ! PBEh-3c def2/J TightSCF DefGrid3
|  2>
|  3> %maxcore 60000
|  4>
|  5> %pal
|  6> nprocs 4
|  7> end
|  8>
|  9> *xyzfile 0 1 2O.xyz
| 10>
| 11>                          ****END OF INPUT****

CARTESIAN COORDINATES (ANGSTROEM)
---------------------------------
  O     -2.623051    0.098305   -0.262061
  H     -1.671648    0.020022   -0.429478
  H     -2.836939    0.996423   -0.514826
  C      0.407330   -0.034064   -0.540922
  Cl     1.320863   -0.189545   -1.964107
  C      1.242115   -0.169664    0.661251
  H      2.328765   -0.180474    0.555083
  H      0.921431    0.579129    1.390543
  H      0.911134   -1.120132    1.104516

 Total Charge           Charge          ....    0
 Multiplicity           Mult            ....    1
 Number of Electrons    NEL             ....   42
 Basis Dimension        Dim             ....   73

ORBITAL ENERGIES
----------------

  NO   OCC          E(Eh)            E(eV)
   0   2.0000    -102.343142     -2784.8985
   1   2.0000     -19.429474      -528.7029
   2   2.0000     -10.555462      -287.2287
   3   2.0000     -10.470611      -284.9198
   4   2.0000      -9.811495      -266.9843
   5   2.0000      -7.497674      -204.0221
   6   2.0000      -7.493096      -203.8975
   7   2.0000      -7.489522      -203.8003
   8   2.0000      -1.058853       -28.8129
   9   2.0000      -1.005597       -27.3637
  10   2.0000      -0.862017       -23.4567
  11   2.0000      -0.654004       -17.7964
  12   2.0000      -0.546488       -14.8707
  13   2.0000      -0.530479       -14.4351
  14   2.0000      -0.513994       -13.9865
  15   2.0000      -0.496694       -13.5157
  16   2.0000      -0.426289       -11.5999
  17   2.0000      -0.411274       -11.1913
  18   2.0000      -0.394910       -10.7460
  19   2.0000      -0.317029        -8.6268
  20   2.0000      -0.293879        -7.9969
  21   0.0000      -0.081844        -2.2271
  22   0.0000       0.085198         2.3184
  23   0.0000       0.147307         4.0084
  24   0.0000       0.171535         4.6677
  25   0.0000       0.177038         4.8175

MULLIKEN ATOMIC CHARGES
-----------------------
   0 O :   -0.871170
   1 H :    0.461894
   2 H :    0.387966
   3 C :   -0.054417
   4 Cl:   -0.013534
   5 C :   -0.721585
   6 H :    0.247356
   7 H :    0.278382
   8 H :    0.285109
Sum of atomic charges:   -0.0000000

LOEWDIN ATOMIC CHARGES
----------------------
   0 O :   -0.634313
   1 H :    0.280545
   2 H :    0.288648
   3 C :   -0.172681
   4 Cl:    0.171886
   5 C :   -0.424621
   6 H :    0.130865
   7 H :    0.171311
   8 H :    0.188361

  Mayer bond orders larger than 0.100000
B(  0-O ,  1-H ) :   0.7196 B(  0-O ,  2-H ) :   0.8304 B(  3-C ,  4-Cl) :   1.2911
B(  3-C ,  5-C ) :   1.0334 B(  5-C ,  6-H ) :   0.8980 B(  5-C ,  7-H ) :   0.8786
B(  5-C ,  8-H ) :   0.8585

Dispersion correction           -0.002797258
FINAL SINGLE POINT ENERGY      -613.687493050962

DIPOLE MOMENT
-------------
                                X             Y             Z
Electronic contribution:      4.65509      -0.44699      -7.26000
Nuclear contribution   :     -3.15358       0.83742       7.54304
                        -----------------------------------------
Total Dipole Moment    :      1.50151       0.39042       0.28304
                        -----------------------------------------
Magnitude (a.u.)       :      1.57705
Magnitude (Debye)      :      4.00854

Rotational constants in cm-1:     0.225146     0.075383     0.057348
Rotational constants in MHz :  6749.696808  2259.913356  1719.253576

                             ****ORCA TERMINATED NORMALLY****
TOTAL RUN TIME: 0 days 0 hours 0 minutes 22 seconds 954 msec
