                         Program Version 5.0.3 -  RELEASE  -
|  1> ! PBEh-3c def2/J TightSCF DefGrid3
|  2>
|  3> %maxcore 60000
|  4>
|  5> %pal
|  6> nprocs 4
|  7> end
|  8>
|  9> *xyzfile 0 1 Thioether_TS.xyz
| 10>
| 11>                          ****END OF INPUT****

CARTESIAN COORDINATES (ANGSTROEM)
---------------------------------
  S      0.000449    0.087267   -0.033160
  C      1.862551    0.085351   -0.034769
  C     -1.865994    0.089186   -0.031546
  H      2.177332   -0.902969    0.278695
  H      2.171864    0.320708   -1.046140
  H      2.180546    0.845456    0.668582
  H     -2.166957   -0.163226   -1.041138
  H     -2.176757   -0.656317    0.688724
  H     -2.185387    1.085619    0.250651

 Total Charge           Charge          ....    0
 Multiplicity           Mult            ....    1
 Number of Electrons    NEL             ....   34
 Basis Dimension        Dim             ....   60

ORBITAL ENERGIES
----------------

  NO   OCC          E(Eh)            E(eV)
   0   2.0000     -89.511819     -2435.7404
   1   2.0000     -10.500045      -285.7208
   2   2.0000     -10.499131      -285.6959
   3   2.0000      -8.153321      -221.8631
   4   2.0000      -6.046938      -164.5455
   5   2.0000      -6.039153      -164.3337
   6   2.0000      -6.039129      -164.3330
   7   2.0000      -0.853311       -23.2198
   8   2.0000      -0.809436       -22.0259
   9   2.0000      -0.649120       -17.6635
  10   2.0000      -0.502158       -13.6644
  11   2.0000      -0.500736       -13.6257
  12   2.0000      -0.492956       -13.4140
  13   2.0000      -0.491339       -13.3700
  14   2.0000      -0.439633       -11.9630
  15   2.0000      -0.228487        -6.2175
  16   2.0000      -0.228263        -6.2114
  17   0.0000      -0.057170        -1.5557
  18   0.0000       0.163170         4.4401
  19   0.0000       0.171049         4.6545
  20   0.0000       0.192474         5.2375
  21   0.0000       0.193695         5.2707

MULLIKEN ATOMIC CHARGES
-----------------------
   0 S :   -0.384924
   1 C :   -0.606242
   2 C :   -0.605144
   3 H :    0.265671
   4 H :    0.266173
   5 H :    0.265110
   6 H :    0.267307
   7 H :    0.266636
   8 H :    0.265413
Sum of atomic charges:    0.0000000

LOEWDIN ATOMIC CHARGES
----------------------
   0 S :   -0.178267
   1 C :   -0.345365
   2 C :   -0.343212
   3 H :    0.144359
   4 H :    0.144679
   5 H :    0.143606
   6 H :    0.145316
   7 H :    0.144696
   8 H :    0.144189

  Mayer bond orders larger than 0.100000
B(  0-S ,  1-C ) :   0.9083 B(  0-S ,  2-C ) :   0.9062 B(  1-C ,  2-C ) :   0.1157
B(  1-C ,  3-H ) :   0.8885 B(  1-C ,  4-H ) :   0.8886 B(  1-C ,  5-H ) :   0.8884
B(  2-C ,  6-H ) :   0.8886 B(  2-C ,  7-H ) :   0.8883 B(  2-C ,  8-H ) :   0.8882

Dispersion correction           -0.002674389
FINAL SINGLE POINT ENERGY      -477.262319053910

DIPOLE MOMENT
-------------
                                X             Y             Z
Electronic contribution:     -0.01371      -0.00231       0.00405
Nuclear contribution   :      0.00296       0.00480      -0.00142
                        -----------------------------------------
Total Dipole Moment    :     -0.01075       0.00249       0.00263
                        -----------------------------------------
Magnitude (a.u.)       :      0.01134
Magnitude (Debye)      :      0.02883

Rotational constants in cm-1:     2.590515     0.146109     0.146070
Rotational constants in MHz : 77661.698354  4380.240248  4379.073965

                             ****ORCA TERMINATED NORMALLY****
TOTAL RUN TIME: 0 days 0 hours 0 minutes 42 seconds 605 msec
