                         Program Version 5.0.3 -  RELEASE  -
|  1> ! PBEh-3c def2/J TightSCF DefGrid3
|  2>
|  3> %maxcore 60000
|  4>
|  5> %pal
|  6> nprocs 4
|  7> end
|  8>
|  9> *xyzfile 0 1 6.xyz
| 10>
| 11>                          ****END OF INPUT****

CARTESIAN COORDINATES (ANGSTROEM)
---------------------------------
  N     -2.644459   -2.294145   -0.276504
  C     -1.419029   -2.809599    0.077634
  C     -0.536622   -1.783300    0.343715
  C     -1.268614   -0.560556    0.145200
  C     -0.926433    0.806264    0.269228
  C     -1.901879    1.756060    0.000540
  C     -3.211810    1.372058   -0.383339
  C     -3.565258    0.043024   -0.506377
  C     -2.581622   -0.919576   -0.239074
  H     -3.461100   -2.835289   -0.493278
  H     -1.263121   -3.875386    0.126354
  H      0.072633    1.097569    0.553465
  H     -3.928520    2.157111   -0.580426
  H     -4.568711   -0.236501   -0.800650
  O     -1.710795    3.105797    0.070797
  C     -0.396850    3.538495    0.408623
  H      0.342364    3.164789   -0.299962
  H     -0.126996    3.215106    1.416885
  H     -0.427311    4.623396    0.376513
  C      0.900704   -1.952924    0.734041
  C      1.872993   -1.763378   -0.442427
  N      1.870582   -0.414480   -0.980994
  C      2.623891    0.631046   -0.525685
  C      3.817697    0.290836    0.344991
  H      1.047554   -2.958017    1.138567
  H      1.163142   -1.247426    1.527247
  H      1.600248   -2.450270   -1.244893
  H      2.886719   -2.013746   -0.134599
  H      1.039261   -0.121074   -1.473600
  O      2.361913    1.789062   -0.831279
  H      4.496148   -0.391183   -0.166901
  H      3.506129   -0.180466    1.277306
  H      4.337156    1.216698    0.568876

 Total Charge           Charge          ....    0
 Multiplicity           Mult            ....    1
 Number of Electrons    NEL             ....  124
 Basis Dimension        Dim             ....  287

ORBITAL ENERGIES
----------------

  NO   OCC          E(Eh)            E(eV)
   0   2.0000     -19.509251      -530.8737
   1   2.0000     -19.453442      -529.3551
   2   2.0000     -14.685225      -399.6053
   3   2.0000     -14.654142      -398.7595
   4   2.0000     -10.546932      -286.9966
   5   2.0000     -10.494964      -285.5825
   6   2.0000     -10.483721      -285.2766
   7   2.0000     -10.479517      -285.1622
   8   2.0000     -10.474225      -285.0182
   9   2.0000     -10.466981      -284.8210
  10   2.0000     -10.452174      -284.4181
  11   2.0000     -10.449500      -284.3454
  12   2.0000     -10.445197      -284.2283
  13   2.0000     -10.443486      -284.1817
  14   2.0000     -10.441452      -284.1263
  15   2.0000     -10.436627      -283.9951
  16   2.0000     -10.435255      -283.9577
  17   2.0000      -1.157315       -31.4921
  18   2.0000      -1.137318       -30.9480
  19   2.0000      -1.087166       -29.5833
  20   2.0000      -1.020790       -27.7771
  21   2.0000      -0.933452       -25.4005
  22   2.0000      -0.898591       -24.4519
  23   2.0000      -0.843936       -22.9647
  24   2.0000      -0.826963       -22.5028
  25   2.0000      -0.826169       -22.4812
  26   2.0000      -0.802902       -21.8481
  27   2.0000      -0.767046       -20.8724
  28   2.0000      -0.732499       -19.9323
  29   2.0000      -0.686524       -18.6813
  30   2.0000      -0.667927       -18.1752
  31   2.0000      -0.650768       -17.7083
  32   2.0000      -0.626797       -17.0560
  33   2.0000      -0.609228       -16.5779
  34   2.0000      -0.571136       -15.5414
  35   2.0000      -0.561042       -15.2667
  36   2.0000      -0.552506       -15.0344
  37   2.0000      -0.547123       -14.8880
  38   2.0000      -0.519669       -14.1409
  39   2.0000      -0.517823       -14.0907
  40   2.0000      -0.513298       -13.9676
  41   2.0000      -0.501046       -13.6342
  42   2.0000      -0.494786       -13.4638
  43   2.0000      -0.487283       -13.2596
  44   2.0000      -0.480201       -13.0669
  45   2.0000      -0.465399       -12.6641
  46   2.0000      -0.456999       -12.4356
  47   2.0000      -0.454631       -12.3711
  48   2.0000      -0.450481       -12.2582
  49   2.0000      -0.448374       -12.2009
  50   2.0000      -0.426874       -11.6158
  51   2.0000      -0.416430       -11.3316
  52   2.0000      -0.411679       -11.2024
  53   2.0000      -0.406352       -11.0574
  54   2.0000      -0.396857       -10.7990
  55   2.0000      -0.370849       -10.0913
  56   2.0000      -0.343783        -9.3548
  57   2.0000      -0.320669        -8.7258
  58   2.0000      -0.307400        -8.3648
  59   2.0000      -0.296598        -8.0708
  60   2.0000      -0.242004        -6.5853
  61   2.0000      -0.234319        -6.3762
  62   0.0000       0.008903         0.2423
  63   0.0000       0.057741         1.5712
  64   0.0000       0.063975         1.7408
  65   0.0000       0.084991         2.3127
  66   0.0000       0.122937         3.3453

MULLIKEN ATOMIC CHARGES
-----------------------
   0 N :   -0.697572
   1 C :   -0.056162
   2 C :    0.013902
   3 C :    0.069463
   4 C :   -0.504862
   5 C :    0.394676
   6 C :   -0.318629
   7 C :   -0.254018
   8 C :    0.349727
   9 H :    0.358305
  10 H :    0.235826
  11 H :    0.253636
  12 H :    0.234249
  13 H :    0.212168
  14 O :   -0.469481
  15 C :   -0.430359
  16 H :    0.254032
  17 H :    0.196607
  18 H :    0.232644
  19 C :   -0.531853
  20 C :   -0.289719
  21 N :   -0.600349
  22 C :    0.499903
  23 C :   -0.779018
  24 H :    0.226656
  25 H :    0.229573
  26 H :    0.241377
  27 H :    0.230947
  28 H :    0.382621
  29 O :   -0.433162
  30 H :    0.241296
  31 H :    0.234831
  32 H :    0.272745
Sum of atomic charges:    0.0000000

LOEWDIN ATOMIC CHARGES
----------------------
   0 N :   -0.155457
   1 C :   -0.087479
   2 C :   -0.115269
   3 C :   -0.059169
   4 C :   -0.202168
   5 C :    0.062044
   6 C :   -0.155149
   7 C :   -0.149269
   8 C :    0.000566
   9 H :    0.261612
  10 H :    0.133632
  11 H :    0.148503
  12 H :    0.146204
  13 H :    0.136734
  14 O :   -0.191122
  15 C :   -0.186803
  16 H :    0.133930
  17 H :    0.110402
  18 H :    0.126965
  19 C :   -0.236435
  20 C :   -0.145427
  21 N :   -0.238008
  22 C :    0.104671
  23 C :   -0.397666
  24 H :    0.135681
  25 H :    0.132362
  26 H :    0.129808
  27 H :    0.127780
  28 H :    0.267860
  29 O :   -0.283720
  30 H :    0.145582
  31 H :    0.142333
  32 H :    0.156471

  Mayer bond orders larger than 0.100000
B(  0-N ,  1-C ) :   1.1487 B(  0-N ,  8-C ) :   1.0035 B(  0-N ,  9-H ) :   0.8335
B(  1-C ,  2-C ) :   1.5422 B(  1-C , 10-H ) :   0.9123 B(  2-C ,  3-C ) :   1.2522
B(  2-C , 19-C ) :   0.9532 B(  3-C ,  4-C ) :   1.2418 B(  3-C ,  8-C ) :   1.2577
B(  4-C ,  5-C ) :   1.4317 B(  4-C , 11-H ) :   0.8943 B(  5-C ,  6-C ) :   1.2948
B(  5-C , 14-O ) :   1.0419 B(  6-C ,  7-C ) :   1.5303 B(  6-C , 12-H ) :   0.9086
B(  7-C ,  8-C ) :   1.2701 B(  7-C , 13-H ) :   0.9208 B( 14-O , 15-C ) :   0.9358
B( 15-C , 16-H ) :   0.8780 B( 15-C , 17-H ) :   0.9119 B( 15-C , 18-H ) :   0.9254
B( 19-C , 20-C ) :   0.9490 B( 19-C , 24-H ) :   0.9220 B( 19-C , 25-H ) :   0.9168
B( 20-C , 21-N ) :   0.9711 B( 20-C , 26-H ) :   0.9118 B( 20-C , 27-H ) :   0.9065
B( 21-N , 22-C ) :   1.1689 B( 21-N , 28-H ) :   0.8022 B( 22-C , 23-C ) :   0.9268
B( 22-C , 29-O ) :   1.9809 B( 23-C , 30-H ) :   0.9083 B( 23-C , 31-H ) :   0.9083
B( 23-C , 32-H ) :   0.9151

Dispersion correction           -0.022687899
FINAL SINGLE POINT ENERGY      -763.328588746079

DIPOLE MOMENT
-------------
                                X             Y             Z
Electronic contribution:    -11.06927       0.12747      -3.00219
Nuclear contribution   :     11.02563      -2.23529       3.29804
                        -----------------------------------------
Total Dipole Moment    :     -0.04365      -2.10782       0.29585
                        -----------------------------------------
Magnitude (a.u.)       :      2.12893
Magnitude (Debye)      :      5.41130

Rotational constants in cm-1:     0.019023     0.013978     0.008545
Rotational constants in MHz :   570.300581   419.061745   256.182872

                             ****ORCA TERMINATED NORMALLY****
TOTAL RUN TIME: 0 days 0 hours 4 minutes 14 seconds 855 msec
