                         Program Version 5.0.3 -  RELEASE  -
|  1> ! PBEh-3c def2/J TightSCF DefGrid3
|  2>
|  3> %maxcore 60000
|  4>
|  5> %pal
|  6> nprocs 4
|  7> end
|  8>
|  9> *xyzfile 0 1 R47.xyz
| 10>
| 11>                          ****END OF INPUT****

CARTESIAN COORDINATES (ANGSTROEM)
---------------------------------
  C      0.000000    0.633107    0.000000
  C      1.380056   -0.048486    0.000000
  C     -0.616117   -0.699535    0.000000
  C      0.568913   -1.344807    0.000000
  H      1.987678    0.128873    0.890236
  H      1.987678    0.128873   -0.890236
  C     -0.402454    1.898773    0.000000
  H      0.354388    2.676679    0.000000
  C     -1.832834    2.341673    0.000000
  H     -2.514539    1.491502    0.000000
  H     -2.059612    2.953965    0.877080
  H     -2.059612    2.953965   -0.877080
  H     -1.641068   -1.044751    0.000000
  C      0.998063   -2.761380    0.000000
  H      1.613582   -2.983281    0.876453
  H      0.144158   -3.438627    0.000000
  H      1.613582   -2.983281   -0.876453

 Total Charge           Charge          ....    0
 Multiplicity           Mult            ....    1
 Number of Electrons    NEL             ....   52
 Basis Dimension        Dim             ....  125

ORBITAL ENERGIES
----------------

  NO   OCC          E(Eh)            E(eV)
   0   2.0000     -10.457251      -284.5563
   1   2.0000     -10.443349      -284.1780
   2   2.0000     -10.438404      -284.0434
   3   2.0000     -10.437922      -284.0303
   4   2.0000     -10.437018      -284.0057
   5   2.0000     -10.429534      -283.8020
   6   2.0000     -10.425019      -283.6792
   7   2.0000      -0.966625       -26.3032
   8   2.0000      -0.858094       -23.3499
   9   2.0000      -0.814230       -22.1563
  10   2.0000      -0.739954       -20.1352
  11   2.0000      -0.726357       -19.7652
  12   2.0000      -0.605294       -16.4709
  13   2.0000      -0.573215       -15.5980
  14   2.0000      -0.529672       -14.4131
  15   2.0000      -0.502928       -13.6854
  16   2.0000      -0.494821       -13.4648
  17   2.0000      -0.468021       -12.7355
  18   2.0000      -0.462770       -12.5926
  19   2.0000      -0.453731       -12.3466
  20   2.0000      -0.431353       -11.7377
  21   2.0000      -0.402593       -10.9551
  22   2.0000      -0.376040       -10.2326
  23   2.0000      -0.363456        -9.8901
  24   2.0000      -0.329246        -8.9592
  25   2.0000      -0.248012        -6.7488
  26   0.0000       0.020171         0.5489
  27   0.0000       0.109086         2.9684
  28   0.0000       0.151867         4.1325
  29   0.0000       0.164190         4.4678
  30   0.0000       0.182775         4.9736

MULLIKEN ATOMIC CHARGES
-----------------------
   0 C :    0.169312
   1 C :   -0.483433
   2 C :   -0.251144
   3 C :    0.106588
   4 H :    0.228513
   5 H :    0.228513
   6 C :   -0.337442
   7 H :    0.206209
   8 C :   -0.683386
   9 H :    0.221995
  10 H :    0.221650
  11 H :    0.221650
  12 H :    0.192932
  13 C :   -0.738374
  14 H :    0.231776
  15 H :    0.232864
  16 H :    0.231776
Sum of atomic charges:    0.0000000

LOEWDIN ATOMIC CHARGES
----------------------
   0 C :   -0.046253
   1 C :   -0.212378
   2 C :   -0.151149
   3 C :   -0.031930
   4 H :    0.131580
   5 H :    0.131580
   6 C :   -0.182822
   7 H :    0.130952
   8 C :   -0.353256
   9 H :    0.130709
  10 H :    0.131963
  11 H :    0.131963
  12 H :    0.125457
  13 C :   -0.361172
  14 H :    0.142222
  15 H :    0.140312
  16 H :    0.142222

  Mayer bond orders larger than 0.100000
B(  0-C ,  1-C ) :   0.9594 B(  0-C ,  2-C ) :   1.0776 B(  0-C ,  6-C ) :   1.7661
B(  1-C ,  3-C ) :   0.9965 B(  1-C ,  4-H ) :   0.9057 B(  1-C ,  5-H ) :   0.9057
B(  2-C ,  3-C ) :   1.7509 B(  2-C , 12-H ) :   0.9344 B(  3-C ,  6-C ) :   0.1085
B(  3-C , 13-C ) :   0.9673 B(  6-C ,  7-H ) :   0.9261 B(  6-C ,  8-C ) :   1.0071
B(  8-C ,  9-H ) :   0.9313 B(  8-C , 10-H ) :   0.9185 B(  8-C , 11-H ) :   0.9185
B( 13-C , 14-H ) :   0.9153 B( 13-C , 15-H ) :   0.9289 B( 13-C , 16-H ) :   0.9153

Dispersion correction           -0.007621171
FINAL SINGLE POINT ENERGY      -272.094124115182

DIPOLE MOMENT
-------------
                                X             Y             Z
Electronic contribution:      0.72508      -0.16302      -0.00000
Nuclear contribution   :     -0.59511      -0.12040       0.00000
                        -----------------------------------------
Total Dipole Moment    :      0.12997      -0.28341      -0.00000
                        -----------------------------------------
Magnitude (a.u.)       :      0.31180
Magnitude (Debye)      :      0.79252

Rotational constants in cm-1:     0.286607     0.047036     0.041336
Rotational constants in MHz :  8592.272345  1410.101457  1239.213136

                             ****ORCA TERMINATED NORMALLY****
TOTAL RUN TIME: 0 days 0 hours 1 minutes 19 seconds 720 msec
