                         Program Version 5.0.3 -  RELEASE  -
|  1> ! PBEh-3c def2/J TightSCF DefGrid3
|  2>
|  3> %maxcore 60000
|  4>
|  5> %pal
|  6> nprocs 4
|  7> end
|  8>
|  9> *xyzfile 0 1 15.xyz
| 10>
| 11>                          ****END OF INPUT****

CARTESIAN COORDINATES (ANGSTROEM)
---------------------------------
  H     -1.912864    2.083085    3.445103
  H      0.324052   -3.448963   -0.936295
  Si     0.834146   -2.170235   -1.495345
  H     -1.044177   -0.622029   -0.461949
  Na     2.717132    0.407946   -0.319240
  S      0.423440    1.090056   -1.854461
  H     -1.392634   -0.796151   -2.412855
  H     -2.345923    1.415995   -0.799140
  Al     1.302163    1.168920    2.111418
  H      2.000686   -1.792545   -0.623140
  C     -0.621984    1.326247    1.389022
  Si    -0.999621    1.070178   -0.310163
  Cl     1.105037    1.651649    4.247895
  B     -0.488325   -0.664817   -1.639994
  B     -1.337502    1.731983    2.486134
  H      1.436373   -2.451317   -2.826991

 Total Charge           Charge          ....    0
 Multiplicity           Mult            ....    1
 Number of Electrons    NEL             ....  108
 Basis Dimension        Dim             ....  164

ORBITAL ENERGIES
----------------

  NO   OCC          E(Eh)            E(eV)
   0   2.0000    -102.247133     -2782.2859
   1   2.0000     -89.589684     -2437.8592
   2   2.0000     -66.807627     -1817.9279
   3   2.0000     -66.735240     -1815.9582
   4   2.0000     -56.604611     -1540.2898
   5   2.0000     -38.976077     -1060.5930
   6   2.0000     -10.414685      -283.3980
   7   2.0000      -9.713564      -264.3195
   8   2.0000      -8.229016      -223.9229
   9   2.0000      -7.398094      -201.3124
  10   2.0000      -7.395002      -201.2282
  11   2.0000      -7.394598      -201.2172
  12   2.0000      -6.996041      -190.3720
  13   2.0000      -6.981371      -189.9728
  14   2.0000      -6.118173      -166.4839
  15   2.0000      -6.117258      -166.4591
  16   2.0000      -6.113207      -166.3488
  17   2.0000      -5.578426      -151.7967
  18   2.0000      -5.516496      -150.1115
  19   2.0000      -4.337444      -118.0278
  20   2.0000      -3.872905      -105.3871
  21   2.0000      -3.869278      -105.2884
  22   2.0000      -3.866672      -105.2175
  23   2.0000      -3.808251      -103.6278
  24   2.0000      -3.807143      -103.5976
  25   2.0000      -3.805940      -103.5649
  26   2.0000      -2.827216       -76.9324
  27   2.0000      -2.824412       -76.8562
  28   2.0000      -2.823221       -76.8237
  29   2.0000      -2.415905       -65.7401
  30   2.0000      -1.290688       -35.1214
  31   2.0000      -1.290109       -35.1057
  32   2.0000      -1.289060       -35.0771
  33   2.0000      -0.850798       -23.1514
  34   2.0000      -0.839499       -22.8439
  35   2.0000      -0.752220       -20.4690
  36   2.0000      -0.646311       -17.5870
  37   2.0000      -0.609615       -16.5885
  38   2.0000      -0.550711       -14.9856
  39   2.0000      -0.509653       -13.8684
  40   2.0000      -0.469003       -12.7622
  41   2.0000      -0.441429       -12.0119
  42   2.0000      -0.431766       -11.7490
  43   2.0000      -0.418963       -11.4005
  44   2.0000      -0.407187       -11.0801
  45   2.0000      -0.397288       -10.8108
  46   2.0000      -0.380088       -10.3427
  47   2.0000      -0.362752        -9.8710
  48   2.0000      -0.356808        -9.7092
  49   2.0000      -0.343857        -9.3568
  50   2.0000      -0.331907        -9.0317
  51   2.0000      -0.306399        -8.3375
  52   2.0000      -0.297951        -8.1077
  53   2.0000      -0.218416        -5.9434
  54   0.0000      -0.033076        -0.9000
  55   0.0000      -0.024327        -0.6620
  56   0.0000      -0.015757        -0.4288
  57   0.0000      -0.004547        -0.1237
  58   0.0000       0.027138         0.7385

MULLIKEN ATOMIC CHARGES
-----------------------
   0 H :    0.107722
   1 H :   -0.000638
   2 Si:    0.222864
   3 H :    0.058020
   4 Na:    0.483258
   5 S :   -0.377130
   6 H :    0.137420
   7 H :    0.039532
   8 Al:    0.294505
   9 H :   -0.095112
  10 C :   -0.680131
  11 Si:    0.542393
  12 Cl:   -0.399080
  13 B :   -0.398850
  14 B :    0.070100
  15 H :   -0.004874
Sum of atomic charges:    0.0000000

LOEWDIN ATOMIC CHARGES
----------------------
   0 H :    0.058387
   1 H :   -0.015417
   2 Si:    0.225884
   3 H :    0.102395
   4 Na:   -0.110812
   5 S :    0.085461
   6 H :    0.044873
   7 H :    0.002944
   8 Al:    0.269750
   9 H :    0.012091
  10 C :   -0.559866
  11 Si:    0.462702
  12 Cl:   -0.151544
  13 B :   -0.480667
  14 B :    0.068775
  15 H :   -0.014958

  Mayer bond orders larger than 0.100000
B(  0-H , 14-B ) :   0.9492 B(  1-H ,  2-Si) :   0.9671 B(  2-Si,  9-H ) :   0.8756
B(  2-Si, 13-B ) :   0.9245 B(  2-Si, 15-H ) :   0.9671 B(  3-H , 11-Si) :   0.3702
B(  3-H , 13-B ) :   0.5309 B(  4-Na,  5-S ) :   0.2432 B(  4-Na,  8-Al) :   0.4658
B(  5-S , 11-Si) :   1.0608 B(  5-S , 13-B ) :   0.7393 B(  6-H , 13-B ) :   0.9537
B(  7-H , 11-Si) :   0.9268 B(  8-Al, 10-C ) :   0.5412 B(  8-Al, 12-Cl) :   0.8775
B(  8-Al, 14-B ) :   0.1714 B( 10-C , 11-Si) :   1.1687 B( 10-C , 14-B ) :   1.9369
B( 11-Si, 13-B ) :   0.2897 B( 11-Si, 14-B ) :   0.1026

Dispersion correction           -0.010988665
FINAL SINGLE POINT ENERGY     -1931.759009422180

DIPOLE MOMENT
-------------
                                X             Y             Z
Electronic contribution:      8.11382      10.45397      11.63644
Nuclear contribution   :     -7.46762     -10.71166     -13.04052
                        -----------------------------------------
Total Dipole Moment    :      0.64620      -0.25769      -1.40407
                        -----------------------------------------
Magnitude (a.u.)       :      1.56697
Magnitude (Debye)      :      3.98293

Rotational constants in cm-1:     0.034589     0.012515     0.011106
Rotational constants in MHz :  1036.950933   375.192869   332.959052

                             ****ORCA TERMINATED NORMALLY****
TOTAL RUN TIME: 0 days 0 hours 3 minutes 3 seconds 96 msec
