                         Program Version 5.0.3 -  RELEASE  -
|  1> ! PBEh-3c def2/J TightSCF DefGrid3
|  2>
|  3> %maxcore 60000
|  4>
|  5> %pal
|  6> nprocs 4
|  7> end
|  8>
|  9> *xyzfile 0 1 PPh3_TS.xyz
| 10>
| 11>                          ****END OF INPUT****

CARTESIAN COORDINATES (ANGSTROEM)
---------------------------------
  C     -1.551502    0.980189    2.810370
  C     -1.866938    1.459621    1.527594
  C     -3.204953    1.416402    1.105465
  C     -4.187930    0.903088    1.937539
  C     -3.871661    0.454770    3.216071
  C     -2.549480    0.505700    3.647298
  P     -0.593890    2.107006    0.474798
  C      0.804470    2.917547    1.212167
  C      0.655756    3.671103    2.387941
  C      1.758780    4.261956    2.986509
  C      3.021115    4.149174    2.412115
  C      3.171901    3.425027    1.232903
  C      2.082271    2.801584    0.643822
  C     -0.718806    1.956118   -1.285494
  C     -0.053059    2.858597   -2.131987
  C     -0.142009    2.722049   -3.508821
  C     -0.911184    1.708794   -4.074952
  C     -1.584205    0.820605   -3.241245
  C     -1.481819    0.927145   -1.863275
  H     -3.472999    1.800378    0.131153
  H     -5.212327    0.872577    1.589986
  H     -4.643504    0.067904    3.866598
  H     -2.287952    0.147326    4.634528
  H     -0.523101    0.974887    3.145075
  H     -0.324753    3.793153    2.827561
  H      1.627245    4.830764    3.897622
  H      3.875330    4.622904    2.876463
  H      4.148662    3.325623    0.777489
  H      2.218801    2.210514   -0.251002
  H     -1.987249    0.211628   -1.230238
  H     -2.182118    0.025919   -3.667521
  H     -0.987266    1.611233   -5.149034
  H      0.382574    3.423051   -4.144644
  H      0.527636    3.666071   -1.707889

 Total Charge           Charge          ....    0
 Multiplicity           Mult            ....    1
 Number of Electrons    NEL             ....  138
 Basis Dimension        Dim             ....  318

ORBITAL ENERGIES
----------------

  NO   OCC          E(Eh)            E(eV)
   0   2.0000     -77.746931     -2115.6016
   1   2.0000     -10.480577      -285.1910
   2   2.0000     -10.480223      -285.1814
   3   2.0000     -10.480188      -285.1804
   4   2.0000     -10.455063      -284.4967
   5   2.0000     -10.455033      -284.4959
   6   2.0000     -10.453703      -284.4597
   7   2.0000     -10.453644      -284.4581
   8   2.0000     -10.453362      -284.4504
   9   2.0000     -10.453201      -284.4461
  10   2.0000     -10.452197      -284.4187
  11   2.0000     -10.452050      -284.4147
  12   2.0000     -10.451992      -284.4132
  13   2.0000     -10.451848      -284.4093
  14   2.0000     -10.450890      -284.3832
  15   2.0000     -10.450685      -284.3776
  16   2.0000     -10.450295      -284.3670
  17   2.0000     -10.448423      -284.3160
  18   2.0000     -10.445839      -284.2457
  19   2.0000      -6.821276      -185.6164
  20   2.0000      -4.913027      -133.6903
  21   2.0000      -4.912956      -133.6883
  22   2.0000      -4.911670      -133.6533
  23   2.0000      -0.967152       -26.3176
  24   2.0000      -0.959531       -26.1102
  25   2.0000      -0.957858       -26.0646
  26   2.0000      -0.872180       -23.7332
  27   2.0000      -0.845308       -23.0020
  28   2.0000      -0.845070       -22.9955
  29   2.0000      -0.840780       -22.8788
  30   2.0000      -0.839501       -22.8440
  31   2.0000      -0.838952       -22.8290
  32   2.0000      -0.738526       -20.0963
  33   2.0000      -0.691920       -18.8281
  34   2.0000      -0.691659       -18.8210
  35   2.0000      -0.682089       -18.5606
  36   2.0000      -0.681419       -18.5423
  37   2.0000      -0.680702       -18.5229
  38   2.0000      -0.635830       -17.3018
  39   2.0000      -0.592800       -16.1309
  40   2.0000      -0.591286       -16.0897
  41   2.0000      -0.565877       -15.3983
  42   2.0000      -0.527969       -14.3668
  43   2.0000      -0.527121       -14.3437
  44   2.0000      -0.519764       -14.1435
  45   2.0000      -0.519356       -14.1324
  46   2.0000      -0.517125       -14.0717
  47   2.0000      -0.508887       -13.8475
  48   2.0000      -0.487917       -13.2769
  49   2.0000      -0.487276       -13.2594
  50   2.0000      -0.484315       -13.1789
  51   2.0000      -0.473866       -12.8945
  52   2.0000      -0.473553       -12.8860
  53   2.0000      -0.435146       -11.8409
  54   2.0000      -0.430312       -11.7094
  55   2.0000      -0.428505       -11.6602
  56   2.0000      -0.426070       -11.5939
  57   2.0000      -0.405763       -11.0414
  58   2.0000      -0.405332       -11.0296
  59   2.0000      -0.401077       -10.9139
  60   2.0000      -0.389698       -10.6042
  61   2.0000      -0.389228       -10.5914
  62   2.0000      -0.337984        -9.1970
  63   2.0000      -0.307784        -8.3752
  64   2.0000      -0.305480        -8.3125
  65   2.0000      -0.301569        -8.2061
  66   2.0000      -0.297669        -8.1000
  67   2.0000      -0.296913        -8.0794
  68   2.0000      -0.193044        -5.2530
  69   0.0000      -0.012189        -0.3317
  70   0.0000      -0.009396        -0.2557
  71   0.0000       0.005447         0.1482
  72   0.0000       0.018098         0.4925
  73   0.0000       0.018489         0.5031

MULLIKEN ATOMIC CHARGES
-----------------------
   0 C :   -0.272058
   1 C :   -0.123118
   2 C :   -0.278581
   3 C :   -0.198369
   4 C :   -0.242852
   5 C :   -0.197803
   6 P :    0.488750
   7 C :   -0.130173
   8 C :   -0.268611
   9 C :   -0.199001
  10 C :   -0.241099
  11 C :   -0.199842
  12 C :   -0.271799
  13 C :   -0.112455
  14 C :   -0.280879
  15 C :   -0.196853
  16 C :   -0.245214
  17 C :   -0.196431
  18 C :   -0.283008
  19 H :    0.243017
  20 H :    0.222612
  21 H :    0.221527
  22 H :    0.222802
  23 H :    0.241049
  24 H :    0.242149
  25 H :    0.223607
  26 H :    0.222340
  27 H :    0.223363
  28 H :    0.243003
  29 H :    0.240849
  30 H :    0.221783
  31 H :    0.220150
  32 H :    0.221704
  33 H :    0.239442
Sum of atomic charges:    0.0000000

LOEWDIN ATOMIC CHARGES
----------------------
   0 C :   -0.143476
   1 C :   -0.176585
   2 C :   -0.146565
   3 C :   -0.128899
   4 C :   -0.145377
   5 C :   -0.128947
   6 P :    0.507477
   7 C :   -0.178510
   8 C :   -0.141397
   9 C :   -0.129594
  10 C :   -0.142838
  11 C :   -0.129589
  12 C :   -0.143020
  13 C :   -0.172786
  14 C :   -0.149681
  15 C :   -0.127146
  16 C :   -0.149956
  17 C :   -0.127372
  18 C :   -0.150192
  19 H :    0.143896
  20 H :    0.138147
  21 H :    0.136864
  22 H :    0.138228
  23 H :    0.144698
  24 H :    0.145160
  25 H :    0.138540
  26 H :    0.137236
  27 H :    0.138493
  28 H :    0.144462
  29 H :    0.143404
  30 H :    0.137761
  31 H :    0.136350
  32 H :    0.137809
  33 H :    0.143406

  Mayer bond orders larger than 0.100000
B(  0-C ,  1-C ) :   1.3355 B(  0-C ,  5-C ) :   1.4529 B(  0-C , 23-H ) :   0.9109
B(  1-C ,  2-C ) :   1.3364 B(  1-C ,  6-P ) :   1.0375 B(  2-C ,  3-C ) :   1.4519
B(  2-C , 19-H ) :   0.9097 B(  3-C ,  4-C ) :   1.4124 B(  3-C , 20-H ) :   0.9186
B(  4-C ,  5-C ) :   1.4094 B(  4-C , 21-H ) :   0.9187 B(  5-C , 22-H ) :   0.9185
B(  6-P ,  7-C ) :   1.0334 B(  6-P , 13-C ) :   1.0437 B(  7-C ,  8-C ) :   1.3396
B(  7-C , 12-C ) :   1.3381 B(  8-C ,  9-C ) :   1.4495 B(  8-C , 24-H ) :   0.9107
B(  9-C , 10-C ) :   1.4113 B(  9-C , 25-H ) :   0.9183 B( 10-C , 11-C ) :   1.4108
B( 10-C , 26-H ) :   0.9186 B( 11-C , 12-C ) :   1.4515 B( 11-C , 27-H ) :   0.9184
B( 12-C , 28-H ) :   0.9101 B( 13-C , 14-C ) :   1.3315 B( 13-C , 18-C ) :   1.3306
B( 14-C , 15-C ) :   1.4550 B( 14-C , 33-H ) :   0.9111 B( 15-C , 16-C ) :   1.4103
B( 15-C , 32-H ) :   0.9189 B( 16-C , 17-C ) :   1.4106 B( 16-C , 31-H ) :   0.9190
B( 17-C , 18-C ) :   1.4559 B( 17-C , 30-H ) :   0.9188 B( 18-C , 29-H ) :   0.9101

Dispersion correction           -0.026234839
FINAL SINGLE POINT ENERGY     -1034.312689103630

DIPOLE MOMENT
-------------
                                X             Y             Z
Electronic contribution:      0.02322       0.05169      -0.03222
Nuclear contribution   :      0.02308      -0.02684       0.13861
                        -----------------------------------------
Total Dipole Moment    :      0.04630       0.02485       0.10639
                        -----------------------------------------
Magnitude (a.u.)       :      0.11866
Magnitude (Debye)      :      0.30161

Rotational constants in cm-1:     0.011467     0.011251     0.005945
Rotational constants in MHz :   343.774476   337.297748   178.222868

                             ****ORCA TERMINATED NORMALLY****
TOTAL RUN TIME: 0 days 0 hours 4 minutes 21 seconds 249 msec
