                         Program Version 5.0.3 -  RELEASE  -
|  1> ! PBEh-3c def2/J TightSCF DefGrid3
|  2>
|  3> %maxcore 60000
|  4>
|  5> %pal
|  6> nprocs 4
|  7> end
|  8>
|  9> *xyzfile 0 1 GLU_xal.xyz
| 10>
| 11>                          ****END OF INPUT****

CARTESIAN COORDINATES (ANGSTROEM)
---------------------------------
  N     -1.290058   -1.168557   -0.364907
  H     -1.077310   -1.628956   -1.233925
  C     -0.301388   -0.255045    0.191029
  H     -0.412108   -0.304506    1.275825
  C      1.087520   -0.693022   -0.229701
  C     -0.609479    1.174827   -0.275962
  H      1.179572   -0.601878   -1.311929
  H      1.220659   -1.742938    0.030213
  C      2.168381    0.142109    0.431293
  O      0.031303    1.725543   -1.167113
  H      2.078281    0.125884    1.519352
  H      2.092778    1.184328    0.123059
  C      3.544544   -0.347004    0.080775
  O      4.498790    0.409425    0.672754
  O      3.804654   -1.288564   -0.632085
  C     -2.502326   -1.358543    0.210007
  C     -3.393905   -2.375585   -0.454182
  O     -2.851354   -0.750883    1.222722
  H     -3.575758   -3.184279    0.250000
  H     -2.971957   -2.785669   -1.368097
  H     -4.349939   -1.907512   -0.674054
  N     -1.647446    1.739806    0.377517
  C     -2.167155    3.028827   -0.026701
  H     -2.200065    1.125455    0.964123
  H     -2.650653    3.504662    0.821534
  H     -1.338947    3.643696   -0.365258
  H     -2.884000    2.941676   -0.843700
  H      5.343156    0.028277    0.389444

 Total Charge           Charge          ....    0
 Multiplicity           Mult            ....    1
 Number of Electrons    NEL             ....  108
 Basis Dimension        Dim             ....  238

ORBITAL ENERGIES
----------------

  NO   OCC          E(Eh)            E(eV)
   0   2.0000     -19.542181      -531.7698
   1   2.0000     -19.488013      -530.2958
   2   2.0000     -19.474822      -529.9368
   3   2.0000     -19.458569      -529.4946
   4   2.0000     -14.682724      -399.5372
   5   2.0000     -14.653112      -398.7314
   6   2.0000     -10.583610      -287.9947
   7   2.0000     -10.567056      -287.5442
   8   2.0000     -10.542528      -286.8768
   9   2.0000     -10.496434      -285.6225
  10   2.0000     -10.461792      -284.6798
  11   2.0000     -10.455258      -284.5020
  12   2.0000     -10.454036      -284.4688
  13   2.0000     -10.449474      -284.3446
  14   2.0000      -1.220740       -33.2180
  15   2.0000      -1.161234       -31.5988
  16   2.0000      -1.139922       -31.0188
  17   2.0000      -1.125248       -30.6196
  18   2.0000      -1.044198       -28.4141
  19   2.0000      -1.015969       -27.6459
  20   2.0000      -0.909555       -24.7502
  21   2.0000      -0.857605       -23.3366
  22   2.0000      -0.816811       -22.2266
  23   2.0000      -0.787389       -21.4259
  24   2.0000      -0.721498       -19.6330
  25   2.0000      -0.684875       -18.6364
  26   2.0000      -0.651910       -17.7394
  27   2.0000      -0.645470       -17.5641
  28   2.0000      -0.609250       -16.5785
  29   2.0000      -0.584007       -15.8916
  30   2.0000      -0.562865       -15.3163
  31   2.0000      -0.558042       -15.1851
  32   2.0000      -0.551498       -15.0070
  33   2.0000      -0.539362       -14.6768
  34   2.0000      -0.523953       -14.2575
  35   2.0000      -0.517634       -14.0855
  36   2.0000      -0.505053       -13.7432
  37   2.0000      -0.490054       -13.3351
  38   2.0000      -0.479699       -13.0533
  39   2.0000      -0.475513       -12.9394
  40   2.0000      -0.464714       -12.6455
  41   2.0000      -0.461970       -12.5708
  42   2.0000      -0.445923       -12.1342
  43   2.0000      -0.436840       -11.8870
  44   2.0000      -0.427001       -11.6193
  45   2.0000      -0.421807       -11.4780
  46   2.0000      -0.416466       -11.3326
  47   2.0000      -0.403881       -10.9902
  48   2.0000      -0.377721       -10.2783
  49   2.0000      -0.341697        -9.2981
  50   2.0000      -0.338142        -9.2013
  51   2.0000      -0.327388        -8.9087
  52   2.0000      -0.301652        -8.2084
  53   2.0000      -0.294489        -8.0134
  54   0.0000       0.036944         1.0053
  55   0.0000       0.045897         1.2489
  56   0.0000       0.060022         1.6333
  57   0.0000       0.111351         3.0300
  58   0.0000       0.132748         3.6123

MULLIKEN ATOMIC CHARGES
-----------------------
   0 N :   -0.624791
   1 H :    0.368396
   2 C :   -0.203366
   3 H :    0.263836
   4 C :   -0.439194
   5 C :    0.563388
   6 H :    0.252900
   7 H :    0.246643
   8 C :   -0.581799
   9 O :   -0.440483
  10 H :    0.254028
  11 H :    0.302468
  12 C :    0.541494
  13 O :   -0.588588
  14 O :   -0.394321
  15 C :    0.541470
  16 C :   -0.743945
  17 O :   -0.462864
  18 H :    0.264815
  19 H :    0.218440
  20 H :    0.262278
  21 N :   -0.647535
  22 C :   -0.492245
  23 H :    0.404398
  24 H :    0.221976
  25 H :    0.252271
  26 H :    0.220075
  27 H :    0.440253
Sum of atomic charges:   -0.0000000

LOEWDIN ATOMIC CHARGES
----------------------
   0 N :   -0.211320
   1 H :    0.262726
   2 C :   -0.093659
   3 H :    0.146256
   4 C :   -0.233286
   5 C :    0.100059
   6 H :    0.147567
   7 H :    0.139601
   8 C :   -0.276436
   9 O :   -0.285333
  10 H :    0.151529
  11 H :    0.172508
  12 C :    0.142420
  13 O :   -0.301831
  14 O :   -0.232962
  15 C :    0.114685
  16 C :   -0.383514
  17 O :   -0.301975
  18 H :    0.161468
  19 H :    0.130512
  20 H :    0.159013
  21 N :   -0.245725
  22 C :   -0.254436
  23 H :    0.267677
  24 H :    0.126484
  25 H :    0.145075
  26 H :    0.120534
  27 H :    0.332363

  Mayer bond orders larger than 0.100000
B(  0-N ,  1-H ) :   0.8178 B(  0-N ,  2-C ) :   0.9184 B(  0-N , 15-C ) :   1.1714
B(  2-C ,  3-H ) :   0.8798 B(  2-C ,  4-C ) :   0.9869 B(  2-C ,  5-C ) :   0.8681
B(  4-C ,  6-H ) :   0.8967 B(  4-C ,  7-H ) :   0.9101 B(  4-C ,  8-C ) :   0.9620
B(  5-C ,  9-O ) :   1.9476 B(  5-C , 21-N ) :   1.1851 B(  8-C , 10-H ) :   0.8979
B(  8-C , 11-H ) :   0.8688 B(  8-C , 12-C ) :   0.9404 B(  9-O , 21-N ) :   0.1007
B( 12-C , 13-O ) :   1.1503 B( 12-C , 14-O ) :   2.0442 B( 13-O , 27-H ) :   0.7601
B( 15-C , 16-C ) :   0.9329 B( 15-C , 17-O ) :   1.8842 B( 16-C , 18-H ) :   0.9054
B( 16-C , 19-H ) :   0.9208 B( 16-C , 20-H ) :   0.9075 B( 21-N , 22-C ) :   0.9602
B( 21-N , 23-H ) :   0.7412 B( 22-C , 24-H ) :   0.9251 B( 22-C , 25-H ) :   0.9087
B( 22-C , 26-H ) :   0.9183

Dispersion correction           -0.016151113
FINAL SINGLE POINT ENERGY      -722.204007826346

DIPOLE MOMENT
-------------
                                X             Y             Z
Electronic contribution:      9.03775      -0.82117       0.50005
Nuclear contribution   :     -9.59977       0.26570      -0.42239
                        -----------------------------------------
Total Dipole Moment    :     -0.56202      -0.55547       0.07766
                        -----------------------------------------
Magnitude (a.u.)       :      0.79400
Magnitude (Debye)      :      2.01819

Rotational constants in cm-1:     0.032411     0.011781     0.009440
Rotational constants in MHz :   971.642513   353.175225   283.006625

                             ****ORCA TERMINATED NORMALLY****
TOTAL RUN TIME: 0 days 0 hours 3 minutes 17 seconds 450 msec
