                         Program Version 5.0.3 -  RELEASE  -
|  1> ! PBEh-3c def2/J TightSCF DefGrid3
|  2>
|  3> %maxcore 60000
|  4>
|  5> %pal
|  6> nprocs 4
|  7> end
|  8>
|  9> *xyzfile 0 1 05ts.xyz
| 10>
| 11>                          ****END OF INPUT****

CARTESIAN COORDINATES (ANGSTROEM)
---------------------------------
  H     -1.968355    1.067067    1.343071
  C     -1.114165    1.014574    0.684217
  C      0.229222    0.729325    1.099450
  C     -1.114165    1.014574   -0.684217
  H      1.982437    0.706300    0.000000
  N      1.034778    1.057824    0.000000
  C      0.229222   -1.334111    0.706597
  H      0.615933    0.869636    2.100188
  C      0.229222   -1.334111   -0.706597
  H     -1.968355    1.067067   -1.343071
  C      0.229222    0.729325   -1.099450
  H      0.615933    0.869636   -2.100188
  H      1.154842   -1.565026   -1.225775
  H     -0.655307   -1.663528    1.238015
  H      1.154842   -1.565026    1.225775
  H     -0.655307   -1.663528   -1.238015

 Total Charge           Charge          ....    0
 Multiplicity           Mult            ....    1
 Number of Electrons    NEL             ....   52
 Basis Dimension        Dim             ....  123

ORBITAL ENERGIES
----------------

  NO   OCC          E(Eh)            E(eV)
   0   2.0000     -14.651280      -398.6816
   1   2.0000     -10.480411      -285.1865
   2   2.0000     -10.480324      -285.1841
   3   2.0000     -10.433156      -283.9006
   4   2.0000     -10.432435      -283.8810
   5   2.0000     -10.425329      -283.6876
   6   2.0000     -10.424807      -283.6734
   7   2.0000      -1.065805       -29.0020
   8   2.0000      -0.864808       -23.5326
   9   2.0000      -0.819278       -22.2937
  10   2.0000      -0.797636       -21.7048
  11   2.0000      -0.654707       -17.8155
  12   2.0000      -0.638825       -17.3833
  13   2.0000      -0.619954       -16.8698
  14   2.0000      -0.606629       -16.5072
  15   2.0000      -0.503488       -13.7006
  16   2.0000      -0.493441       -13.4272
  17   2.0000      -0.473691       -12.8898
  18   2.0000      -0.461132       -12.5480
  19   2.0000      -0.440357       -11.9827
  20   2.0000      -0.435213       -11.8428
  21   2.0000      -0.432064       -11.7571
  22   2.0000      -0.387322       -10.5396
  23   2.0000      -0.296900        -8.0791
  24   2.0000      -0.275267        -7.4904
  25   2.0000      -0.249742        -6.7958
  26   0.0000       0.047630         1.2961
  27   0.0000       0.059989         1.6324
  28   0.0000       0.140360         3.8194
  29   0.0000       0.155582         4.2336
  30   0.0000       0.184123         5.0102

MULLIKEN ATOMIC CHARGES
-----------------------
   0 H :    0.215245
   1 C :   -0.178628
   2 C :   -0.151677
   3 C :   -0.178628
   4 H :    0.342006
   5 N :   -0.462964
   6 C :   -0.479014
   7 H :    0.219405
   8 C :   -0.479014
   9 H :    0.215245
  10 C :   -0.151677
  11 H :    0.219405
  12 H :    0.211128
  13 H :    0.224020
  14 H :    0.211128
  15 H :    0.224020
Sum of atomic charges:    0.0000000

LOEWDIN ATOMIC CHARGES
----------------------
   0 H :    0.134842
   1 C :   -0.163942
   2 C :   -0.071144
   3 C :   -0.163942
   4 H :    0.244577
   5 N :   -0.203127
   6 C :   -0.302139
   7 H :    0.129871
   8 C :   -0.302139
   9 H :    0.134842
  10 C :   -0.071144
  11 H :    0.129871
  12 H :    0.122819
  13 H :    0.128968
  14 H :    0.122819
  15 H :    0.128968

  Mayer bond orders larger than 0.100000
B(  0-H ,  1-C ) :   0.9247 B(  1-C ,  2-C ) :   1.2108 B(  1-C ,  3-C ) :   1.6281
B(  2-C ,  5-N ) :   1.1070 B(  2-C ,  6-C ) :   0.4977 B(  2-C ,  7-H ) :   0.9228
B(  3-C ,  9-H ) :   0.9247 B(  3-C , 10-C ) :   1.2108 B(  4-H ,  5-N ) :   0.8348
B(  5-N , 10-C ) :   1.1070 B(  6-C ,  8-C ) :   1.3748 B(  6-C , 13-H ) :   0.9253
B(  6-C , 14-H ) :   0.9236 B(  8-C , 10-C ) :   0.4977 B(  8-C , 12-H ) :   0.9236
B(  8-C , 15-H ) :   0.9253 B( 10-C , 11-H ) :   0.9228

Dispersion correction           -0.008913264
FINAL SINGLE POINT ENERGY      -288.069369557510

DIPOLE MOMENT
-------------
                                X             Y             Z
Electronic contribution:     -0.04046       3.69606      -0.00000
Nuclear contribution   :      0.35217      -3.77740       0.00000
                        -----------------------------------------
Total Dipole Moment    :      0.31171      -0.08134      -0.00000
                        -----------------------------------------
Magnitude (a.u.)       :      0.32215
Magnitude (Debye)      :      0.81883

Rotational constants in cm-1:     0.132104     0.099897     0.092123
Rotational constants in MHz :  3960.392107  2994.848628  2761.772669

                             ****ORCA TERMINATED NORMALLY****
TOTAL RUN TIME: 0 days 0 hours 1 minutes 40 seconds 466 msec
