                         Program Version 5.0.3 -  RELEASE  -
|  1> ! PBEh-3c def2/J TightSCF DefGrid3
|  2>
|  3> %maxcore 60000
|  4>
|  5> %pal
|  6> nprocs 4
|  7> end
|  8>
|  9> *xyzfile 0 1 BrBr_OCH2.xyz
| 10>
| 11>                          ****END OF INPUT****

CARTESIAN COORDINATES (ANGSTROEM)
---------------------------------
  Br    -0.944758   -1.654252    0.000000
  Br     0.000000    0.431831    0.000000
  O      1.406705    2.803092    0.000000
  C      2.585545    2.572416    0.000000
  H      2.971600    1.538965    0.000000
  H      3.328036    3.386542    0.000000

 Total Charge           Charge          ....    0
 Multiplicity           Mult            ....    1
 Number of Electrons    NEL             ....   86
 Basis Dimension        Dim             ....   98

ORBITAL ENERGIES
----------------

  NO   OCC          E(Eh)            E(eV)
   0   2.0000    -484.558972    -13185.5200
   1   2.0000    -484.551097    -13185.3057
   2   2.0000     -63.220857     -1720.3270
   3   2.0000     -63.213888     -1720.1374
   4   2.0000     -56.926150     -1549.0393
   5   2.0000     -56.922229     -1548.9326
   6   2.0000     -56.922213     -1548.9322
   7   2.0000     -56.918800     -1548.8393
   8   2.0000     -56.915477     -1548.7489
   9   2.0000     -56.915459     -1548.7484
  10   2.0000     -19.543940      -531.8176
  11   2.0000     -10.563440      -287.4458
  12   2.0000      -9.049161      -246.2402
  13   2.0000      -9.042617      -246.0621
  14   2.0000      -6.827488      -185.7854
  15   2.0000      -6.819865      -185.5779
  16   2.0000      -6.808577      -185.2708
  17   2.0000      -6.808477      -185.2681
  18   2.0000      -6.802772      -185.1128
  19   2.0000      -6.802757      -185.1124
  20   2.0000      -2.840500       -77.2939
  21   2.0000      -2.834883       -77.1411
  22   2.0000      -2.834804       -77.1389
  23   2.0000      -2.832744       -77.0829
  24   2.0000      -2.827883       -76.9506
  25   2.0000      -2.827880       -76.9505
  26   2.0000      -2.818589       -76.6977
  27   2.0000      -2.818587       -76.6977
  28   2.0000      -2.813246       -76.5523
  29   2.0000      -2.813245       -76.5523
  30   2.0000      -1.200842       -32.6766
  31   2.0000      -0.926067       -25.1996
  32   2.0000      -0.793728       -21.5984
  33   2.0000      -0.733198       -19.9513
  34   2.0000      -0.590338       -16.0639
  35   2.0000      -0.547007       -14.8848
  36   2.0000      -0.480112       -13.0645
  37   2.0000      -0.456102       -12.4112
  38   2.0000      -0.403137       -10.9699
  39   2.0000      -0.402539       -10.9536
  40   2.0000      -0.349501        -9.5104
  41   2.0000      -0.316823        -8.6212
  42   2.0000      -0.316236        -8.6052
  43   0.0000      -0.085956        -2.3390
  44   0.0000      -0.027224        -0.7408
  45   0.0000       0.141298         3.8449
  46   0.0000       0.236224         6.4280
  47   0.0000       0.240957         6.5568

MULLIKEN ATOMIC CHARGES
-----------------------
   0 Br:   -0.053623
   1 Br:    0.003074
   2 O :   -0.294824
   3 C :   -0.022813
   4 H :    0.181704
   5 H :    0.186482
Sum of atomic charges:    0.0000000

LOEWDIN ATOMIC CHARGES
----------------------
   0 Br:   -0.051541
   1 Br:    0.006385
   2 O :   -0.159890
   3 C :    0.009270
   4 H :    0.096461
   5 H :    0.099314

  Mayer bond orders larger than 0.100000
B(  0-Br,  1-Br) :   1.0192 B(  2-O ,  3-C ) :   2.0740 B(  3-C ,  4-H ) :   0.8625
B(  3-C ,  5-H ) :   0.8651

Dispersion correction           -0.001884540
FINAL SINGLE POINT ENERGY     -5260.268499626734

DIPOLE MOMENT
-------------
                                X             Y             Z
Electronic contribution:    -12.08966     -14.23170       0.00000
Nuclear contribution   :     13.33455      14.52223       0.00000
                        -----------------------------------------
Total Dipole Moment    :      1.24489       0.29053       0.00000
                        -----------------------------------------
Magnitude (a.u.)       :      1.27835
Magnitude (Debye)      :      3.24930

Rotational constants in cm-1:     0.939508     0.026536     0.025807
Rotational constants in MHz : 28165.751679   795.515311   773.663898

                             ****ORCA TERMINATED NORMALLY****
TOTAL RUN TIME: 0 days 0 hours 1 minutes 14 seconds 313 msec
