                         Program Version 5.0.3 -  RELEASE  -
|  1> ! PBEh-3c def2/J TightSCF DefGrid3
|  2>
|  3> %maxcore 60000
|  4>
|  5> %pal
|  6> nprocs 4
|  7> end
|  8>
|  9> *xyzfile 0 1 60A.xyz
| 10>
| 11>                          ****END OF INPUT****

CARTESIAN COORDINATES (ANGSTROEM)
---------------------------------
  C      0.000000    0.000000    0.606073
  H      0.000000    0.000000    1.669718
  C      0.000000    0.000000   -0.606073
  H      0.000000    0.000000   -1.669718

 Total Charge           Charge          ....    0
 Multiplicity           Mult            ....    1
 Number of Electrons    NEL             ....   14
 Basis Dimension        Dim             ....   34

ORBITAL ENERGIES
----------------

  NO   OCC          E(Eh)            E(eV)
   0   2.0000     -10.459107      -284.6068
   1   2.0000     -10.456753      -284.5427
   2   2.0000      -0.839948       -22.8562
   3   2.0000      -0.639106       -17.3910
   4   2.0000      -0.559829       -15.2337
   5   2.0000      -0.337786        -9.1916
   6   2.0000      -0.337786        -9.1916
   7   0.0000       0.068220         1.8564
   8   0.0000       0.068220         1.8564
   9   0.0000       0.160198         4.3592
  10   0.0000       0.208406         5.6710
  11   0.0000       0.424770        11.5586

MULLIKEN ATOMIC CHARGES
-----------------------
   0 C :   -0.238132
   1 H :    0.238132
   2 C :   -0.238133
   3 H :    0.238133
Sum of atomic charges:    0.0000000

LOEWDIN ATOMIC CHARGES
----------------------
   0 C :   -0.163434
   1 H :    0.163434
   2 C :   -0.163434
   3 H :    0.163434

  Mayer bond orders larger than 0.100000
B(  0-C ,  1-H ) :   0.9275 B(  0-C ,  2-C ) :   2.8374 B(  2-C ,  3-H ) :   0.9275

Dispersion correction           -0.000697885
FINAL SINGLE POINT ENERGY       -77.142129070026

DIPOLE MOMENT
-------------
                                X             Y             Z
Electronic contribution:      0.00000      -0.00000       0.00000
Nuclear contribution   :      0.00000       0.00000      -0.00000
                        -----------------------------------------
Total Dipole Moment    :      0.00000      -0.00000       0.00000
                        -----------------------------------------
Magnitude (a.u.)       :      0.00000
Magnitude (Debye)      :      0.00000

Rotational constants in cm-1:     0.000000     1.167072     1.167072
Rotational constants in MHz :     0.000000 34987.952414 34987.952414

                             ****ORCA TERMINATED NORMALLY****
TOTAL RUN TIME: 0 days 0 hours 0 minutes 47 seconds 746 msec
