                         Program Version 5.0.3 -  RELEASE  -
|  1> ! PBEh-3c def2/J TightSCF DefGrid3
|  2>
|  3> %maxcore 60000
|  4>
|  5> %pal
|  6> nprocs 4
|  7> end
|  8>
|  9> *xyzfile 0 1 t-n2h2.xyz
| 10>
| 11>                          ****END OF INPUT****

CARTESIAN COORDINATES (ANGSTROEM)
---------------------------------
  H      1.059214    0.827082    0.000000
  N      0.616258   -0.102294    0.000000
  N     -0.616258    0.102294    0.000000
  H     -1.059214   -0.827082    0.000000

 Total Charge           Charge          ....    0
 Multiplicity           Mult            ....    1
 Number of Electrons    NEL             ....   16
 Basis Dimension        Dim             ....   34

ORBITAL ENERGIES
----------------

  NO   OCC          E(Eh)            E(eV)
   0   2.0000     -14.690601      -399.7516
   1   2.0000     -14.690128      -399.7387
   2   2.0000      -1.132009       -30.8035
   3   2.0000      -0.777204       -21.1488
   4   2.0000      -0.545696       -14.8492
   5   2.0000      -0.505769       -13.7627
   6   2.0000      -0.438328       -11.9275
   7   2.0000      -0.294036        -8.0011
   8   0.0000      -0.012143        -0.3304
   9   0.0000       0.159744         4.3469
  10   0.0000       0.160433         4.3656
  11   0.0000       0.381326        10.3764
  12   0.0000       0.703098        19.1323

MULLIKEN ATOMIC CHARGES
-----------------------
   0 H :    0.326797
   1 N :   -0.326797
   2 N :   -0.326797
   3 H :    0.326797
Sum of atomic charges:   -0.0000000

LOEWDIN ATOMIC CHARGES
----------------------
   0 H :    0.211595
   1 N :   -0.211595
   2 N :   -0.211595
   3 H :    0.211595

  Mayer bond orders larger than 0.100000
B(  0-H ,  1-N ) :   0.8439 B(  1-N ,  2-N ) :   2.0016 B(  2-N ,  3-H ) :   0.8439

Dispersion correction           -0.000661524
FINAL SINGLE POINT ENERGY      -110.390222498548

DIPOLE MOMENT
-------------
                                X             Y             Z
Electronic contribution:     -0.00000      -0.00000       0.00000
Nuclear contribution   :      0.00000       0.00000       0.00000
                        -----------------------------------------
Total Dipole Moment    :     -0.00000      -0.00000       0.00000
                        -----------------------------------------
Magnitude (a.u.)       :      0.00000
Magnitude (Debye)      :      0.00000

Rotational constants in cm-1:    10.081026     1.306714     1.156772
Rotational constants in MHz : 302221.544065 39174.296216 34679.146296

                             ****ORCA TERMINATED NORMALLY****
TOTAL RUN TIME: 0 days 0 hours 0 minutes 37 seconds 510 msec
