                         Program Version 5.0.3 -  RELEASE  -
|  1> ! PBEh-3c def2/J TightSCF DefGrid3
|  2>
|  3> %maxcore 60000
|  4>
|  5> %pal
|  6> nprocs 4
|  7> end
|  8>
|  9> *xyzfile 0 1 Dibenzocycloheptene.xyz
| 10>
| 11>                          ****END OF INPUT****

CARTESIAN COORDINATES (ANGSTROEM)
---------------------------------
  C     -0.376393    0.444055    2.088858
  C     -1.516799    0.338722    1.185980
  C     -1.440624    0.661569   -0.181266
  C      0.987049    0.333185   -0.709581
  C      1.533646   -0.070642    0.522567
  C      0.928093    0.267765    1.805251
  C      2.703397   -0.844552    0.518898
  C      3.290412   -1.257310   -0.665621
  C      2.715964   -0.896781   -1.880324
  C      1.575326   -0.104110   -1.892924
  C     -2.549762    0.456018   -0.996429
  C     -3.741080   -0.032428   -0.477747
  C     -3.836076   -0.314087    0.881166
  C     -2.736058   -0.122885    1.700218
  C     -0.184053    1.279452   -0.730235
  H     -0.632493    0.579760    3.133866
  H      1.613315    0.270157    2.646028
  H      3.140268   -1.137197    1.465943
  H      4.189693   -1.857919   -0.643777
  H      3.165266   -1.216716   -2.811292
  H      1.143760    0.205173   -2.837059
  H     -2.483045    0.707620   -2.047668
  H     -4.594989   -0.176419   -1.126165
  H     -4.763444   -0.682369    1.299214
  H     -2.803068   -0.353653    2.756037
  H      0.067589    2.154619   -0.121681
  H     -0.359894    1.629974   -1.747256

 Total Charge           Charge          ....    0
 Multiplicity           Mult            ....    1
 Number of Electrons    NEL             ....  102
 Basis Dimension        Dim             ....  249

ORBITAL ENERGIES
----------------

  NO   OCC          E(Eh)            E(eV)
   0   2.0000     -10.459904      -284.6285
   1   2.0000     -10.459641      -284.6213
   2   2.0000     -10.457562      -284.5647
   3   2.0000     -10.457410      -284.5606
   4   2.0000     -10.453697      -284.4595
   5   2.0000     -10.452836      -284.4361
   6   2.0000     -10.449105      -284.3346
   7   2.0000     -10.448929      -284.3298
   8   2.0000     -10.448397      -284.3153
   9   2.0000     -10.448226      -284.3107
  10   2.0000     -10.447512      -284.2913
  11   2.0000     -10.446636      -284.2674
  12   2.0000     -10.446466      -284.2628
  13   2.0000     -10.446276      -284.2576
  14   2.0000     -10.446221      -284.2561
  15   2.0000      -0.978332       -26.6218
  16   2.0000      -0.956818       -26.0363
  17   2.0000      -0.899536       -24.4776
  18   2.0000      -0.882204       -24.0060
  19   2.0000      -0.851175       -23.1616
  20   2.0000      -0.836095       -22.7513
  21   2.0000      -0.811200       -22.0739
  22   2.0000      -0.760809       -20.7027
  23   2.0000      -0.715648       -19.4738
  24   2.0000      -0.688107       -18.7243
  25   2.0000      -0.676148       -18.3989
  26   2.0000      -0.649687       -17.6789
  27   2.0000      -0.625368       -17.0171
  28   2.0000      -0.577660       -15.7189
  29   2.0000      -0.558101       -15.1867
  30   2.0000      -0.554258       -15.0821
  31   2.0000      -0.529207       -14.4005
  32   2.0000      -0.517847       -14.0913
  33   2.0000      -0.503243       -13.6939
  34   2.0000      -0.501619       -13.6497
  35   2.0000      -0.485685       -13.2162
  36   2.0000      -0.476002       -12.9527
  37   2.0000      -0.474880       -12.9221
  38   2.0000      -0.441934       -12.0256
  39   2.0000      -0.441169       -12.0048
  40   2.0000      -0.429406       -11.6847
  41   2.0000      -0.423923       -11.5355
  42   2.0000      -0.400686       -10.9032
  43   2.0000      -0.392857       -10.6902
  44   2.0000      -0.391963       -10.6658
  45   2.0000      -0.384422       -10.4606
  46   2.0000      -0.354054        -9.6343
  47   2.0000      -0.300991        -8.1904
  48   2.0000      -0.291958        -7.9446
  49   2.0000      -0.281393        -7.6571
  50   2.0000      -0.250406        -6.8139
  51   0.0000      -0.026497        -0.7210
  52   0.0000       0.013682         0.3723
  53   0.0000       0.024353         0.6627
  54   0.0000       0.029369         0.7992
  55   0.0000       0.094563         2.5732

MULLIKEN ATOMIC CHARGES
-----------------------
   0 C :   -0.274414
   1 C :    0.122586
   2 C :    0.120880
   3 C :    0.121076
   4 C :    0.122123
   5 C :   -0.273584
   6 C :   -0.274174
   7 C :   -0.221495
   8 C :   -0.218741
   9 C :   -0.278563
  10 C :   -0.277883
  11 C :   -0.218640
  12 C :   -0.221903
  13 C :   -0.273955
  14 C :   -0.613356
  15 H :    0.219996
  16 H :    0.219665
  17 H :    0.213498
  18 H :    0.218920
  19 H :    0.218905
  20 H :    0.208870
  21 H :    0.208871
  22 H :    0.218863
  23 H :    0.218692
  24 H :    0.213598
  25 H :    0.260559
  26 H :    0.239605
Sum of atomic charges:   -0.0000000

LOEWDIN ATOMIC CHARGES
----------------------
   0 C :   -0.129454
   1 C :   -0.046990
   2 C :   -0.024876
   3 C :   -0.024574
   4 C :   -0.046941
   5 C :   -0.129325
   6 C :   -0.118771
   7 C :   -0.139397
   8 C :   -0.130442
   9 C :   -0.134024
  10 C :   -0.134200
  11 C :   -0.130353
  12 C :   -0.139274
  13 C :   -0.118618
  14 C :   -0.207431
  15 H :    0.139933
  16 H :    0.139825
  17 H :    0.136152
  18 H :    0.136635
  19 H :    0.136633
  20 H :    0.134387
  21 H :    0.134389
  22 H :    0.136594
  23 H :    0.136610
  24 H :    0.136187
  25 H :    0.151193
  26 H :    0.136133

  Mayer bond orders larger than 0.100000
B(  0-C ,  1-C ) :   1.0590 B(  0-C ,  5-C ) :   1.7740 B(  0-C , 15-H ) :   0.9167
B(  1-C ,  2-C ) :   1.3392 B(  1-C , 13-C ) :   1.3388 B(  2-C , 10-C ) :   1.4202
B(  2-C , 14-C ) :   0.9299 B(  3-C ,  4-C ) :   1.3385 B(  3-C ,  9-C ) :   1.4203
B(  3-C , 14-C ) :   0.9300 B(  4-C ,  5-C ) :   1.0599 B(  4-C ,  6-C ) :   1.3380
B(  5-C , 16-H ) :   0.9168 B(  6-C ,  7-C ) :   1.4440 B(  6-C , 17-H ) :   0.9242
B(  7-C ,  8-C ) :   1.4110 B(  7-C , 18-H ) :   0.9193 B(  8-C ,  9-C ) :   1.4243
B(  8-C , 19-H ) :   0.9191 B(  9-C , 20-H ) :   0.9221 B( 10-C , 11-C ) :   1.4248
B( 10-C , 21-H ) :   0.9221 B( 11-C , 12-C ) :   1.4111 B( 11-C , 22-H ) :   0.9191
B( 12-C , 13-C ) :   1.4437 B( 12-C , 23-H ) :   0.9194 B( 13-C , 24-H ) :   0.9242
B( 14-C , 25-H ) :   0.9031 B( 14-C , 26-H ) :   0.9255

Dispersion correction           -0.019911967
FINAL SINGLE POINT ENERGY      -577.542510121536

DIPOLE MOMENT
-------------
                                X             Y             Z
Electronic contribution:      0.16538      -0.00972       0.80104
Nuclear contribution   :     -0.17537       0.01113      -0.85177
                        -----------------------------------------
Total Dipole Moment    :     -0.00998       0.00140      -0.05073
                        -----------------------------------------
Magnitude (a.u.)       :      0.05173
Magnitude (Debye)      :      0.13148

Rotational constants in cm-1:     0.046308     0.014390     0.012076
Rotational constants in MHz :  1388.269214   431.393683   362.037553

                             ****ORCA TERMINATED NORMALLY****
TOTAL RUN TIME: 0 days 0 hours 3 minutes 25 seconds 598 msec
