                         Program Version 5.0.3 -  RELEASE  -
|  1> ! PBEh-3c def2/J TightSCF DefGrid3
|  2>
|  3> %maxcore 60000
|  4>
|  5> %pal
|  6> nprocs 4
|  7> end
|  8>
|  9> *xyzfile 0 1 P48.xyz
| 10>
| 11>                          ****END OF INPUT****

CARTESIAN COORDINATES (ANGSTROEM)
---------------------------------
  C     -0.280938   -0.506291   -0.423189
  C      1.037674    0.386281   -0.514442
  C      0.628324   -1.532783    0.238429
  C      1.727184   -0.782262    0.161974
  H      1.339642    0.518866   -1.556977
  C     -1.417143    0.018570    0.384148
  H     -1.189344    0.295703    1.408228
  C     -2.661008    0.152262   -0.059946
  H     -3.451685    0.536069    0.570406
  H     -2.931254   -0.120863   -1.073036
  H      0.423079   -2.524869    0.617819
  H      2.756892   -0.938482    0.455801
  C      1.051350    1.731533    0.192044
  H      2.044421    2.180807    0.134405
  H      0.342452    2.422333   -0.266969
  H      0.793713    1.633308    1.246561
  H     -0.640572   -0.806730   -1.410344

 Total Charge           Charge          ....    0
 Multiplicity           Mult            ....    1
 Number of Electrons    NEL             ....   52
 Basis Dimension        Dim             ....  125

ORBITAL ENERGIES
----------------

  NO   OCC          E(Eh)            E(eV)
   0   2.0000     -10.449905      -284.3564
   1   2.0000     -10.448791      -284.3261
   2   2.0000     -10.442750      -284.1617
   3   2.0000     -10.442302      -284.1495
   4   2.0000     -10.441083      -284.1163
   5   2.0000     -10.431344      -283.8513
   6   2.0000     -10.423946      -283.6500
   7   2.0000      -0.964414       -26.2430
   8   2.0000      -0.859887       -23.3987
   9   2.0000      -0.812270       -22.1030
  10   2.0000      -0.734065       -19.9749
  11   2.0000      -0.682781       -18.5794
  12   2.0000      -0.631163       -17.1748
  13   2.0000      -0.580116       -15.7858
  14   2.0000      -0.563514       -15.3340
  15   2.0000      -0.508326       -13.8323
  16   2.0000      -0.496352       -13.5064
  17   2.0000      -0.482726       -13.1356
  18   2.0000      -0.460713       -12.5366
  19   2.0000      -0.430050       -11.7023
  20   2.0000      -0.418132       -11.3780
  21   2.0000      -0.386288       -10.5114
  22   2.0000      -0.370878       -10.0921
  23   2.0000      -0.355937        -9.6855
  24   2.0000      -0.302994        -8.2449
  25   2.0000      -0.288005        -7.8370
  26   0.0000       0.033654         0.9158
  27   0.0000       0.055907         1.5213
  28   0.0000       0.157069         4.2741
  29   0.0000       0.165948         4.5157
  30   0.0000       0.179589         4.8869

MULLIKEN ATOMIC CHARGES
-----------------------
   0 C :   -0.343234
   1 C :   -0.227903
   2 C :   -0.164459
   3 C :   -0.189320
   4 H :    0.227017
   5 C :   -0.090762
   6 H :    0.215263
   7 C :   -0.499814
   8 H :    0.215080
   9 H :    0.209450
  10 H :    0.205871
  11 H :    0.201706
  12 C :   -0.645989
  13 H :    0.220885
  14 H :    0.226952
  15 H :    0.213342
  16 H :    0.225914
Sum of atomic charges:   -0.0000000

LOEWDIN ATOMIC CHARGES
----------------------
   0 C :   -0.128877
   1 C :   -0.126814
   2 C :   -0.130945
   3 C :   -0.133027
   4 H :    0.126871
   5 C :   -0.133424
   6 H :    0.130002
   7 C :   -0.272752
   8 H :    0.131411
   9 H :    0.127631
  10 H :    0.125396
  11 H :    0.123689
  12 C :   -0.358107
  13 H :    0.130028
  14 H :    0.133112
  15 H :    0.126113
  16 H :    0.129694

  Mayer bond orders larger than 0.100000
B(  0-C ,  1-C ) :   0.9315 B(  0-C ,  2-C ) :   0.9997 B(  0-C ,  5-C ) :   0.9871
B(  0-C , 16-H ) :   0.9067 B(  1-C ,  3-C ) :   1.0056 B(  1-C ,  4-H ) :   0.9012
B(  1-C , 12-C ) :   0.9782 B(  2-C ,  3-C ) :   1.8629 B(  2-C , 10-H ) :   0.9267
B(  3-C , 11-H ) :   0.9279 B(  5-C ,  6-H ) :   0.9151 B(  5-C ,  7-C ) :   1.9149
B(  7-C ,  8-H ) :   0.9295 B(  7-C ,  9-H ) :   0.9303 B( 12-C , 13-H ) :   0.9261
B( 12-C , 14-H ) :   0.9231 B( 12-C , 15-H ) :   0.9277

Dispersion correction           -0.008412734
FINAL SINGLE POINT ENERGY      -272.075456394256

DIPOLE MOMENT
-------------
                                X             Y             Z
Electronic contribution:      0.64932      -3.25517      -0.16051
Nuclear contribution   :     -0.53173       3.31504       0.13058
                        -----------------------------------------
Total Dipole Moment    :      0.11759       0.05987      -0.02993
                        -----------------------------------------
Magnitude (a.u.)       :      0.13531
Magnitude (Debye)      :      0.34393

Rotational constants in cm-1:     0.143614     0.072403     0.053910
Rotational constants in MHz :  4305.442069  2170.574435  1616.189652

                             ****ORCA TERMINATED NORMALLY****
TOTAL RUN TIME: 0 days 0 hours 1 minutes 7 seconds 399 msec
