                         Program Version 5.0.3 -  RELEASE  -
|  1> ! PBEh-3c def2/J TightSCF DefGrid3
|  2>
|  3> %maxcore 60000
|  4>
|  5> %pal
|  6> nprocs 4
|  7> end
|  8>
|  9> *xyzfile 0 1 3N.xyz
| 10>
| 11>                          ****END OF INPUT****

CARTESIAN COORDINATES (ANGSTROEM)
---------------------------------
  N     -2.021816    0.038430   -0.137086
  H     -1.056917    0.342131   -0.153474
  H     -2.588966    0.873685   -0.177206
  H     -2.179940   -0.374852    0.771059
  Si     1.993858    0.013847   -0.050214
  H      2.874327   -0.371337   -1.209577
  H      2.979453   -0.521904    0.956499

 Total Charge           Charge          ....    0
 Multiplicity           Mult            ....    1
 Number of Electrons    NEL             ....   26
 Basis Dimension        Dim             ....   43

ORBITAL ENERGIES
----------------

  NO   OCC          E(Eh)            E(eV)
   0   2.0000     -66.760557     -1816.6471
   1   2.0000     -14.585463      -396.8906
   2   2.0000      -5.538658      -150.7146
   3   2.0000      -3.833419      -104.3126
   4   2.0000      -3.825584      -104.0994
   5   2.0000      -3.823744      -104.0494
   6   2.0000      -0.926044       -25.1990
   7   2.0000      -0.574864       -15.6428
   8   2.0000      -0.502470       -13.6729
   9   2.0000      -0.501095       -13.6355
  10   2.0000      -0.383736       -10.4420
  11   2.0000      -0.298492        -8.1224
  12   2.0000      -0.283422        -7.7123
  13   0.0000      -0.096766        -2.6331
  14   0.0000       0.066457         1.8084
  15   0.0000       0.123886         3.3711
  16   0.0000       0.167794         4.5659
  17   0.0000       0.189212         5.1487

MULLIKEN ATOMIC CHARGES
-----------------------
   0 N :   -0.959751
   1 H :    0.338524
   2 H :    0.310652
   3 H :    0.308596
   4 Si:    0.078684
   5 H :   -0.037231
   6 H :   -0.039474
Sum of atomic charges:    0.0000000

LOEWDIN ATOMIC CHARGES
----------------------
   0 N :   -0.655958
   1 H :    0.219000
   2 H :    0.214604
   3 H :    0.213503
   4 Si:    0.087150
   5 H :   -0.037942
   6 H :   -0.040355

  Mayer bond orders larger than 0.100000
B(  0-N ,  1-H ) :   0.8535 B(  0-N ,  2-H ) :   0.8828 B(  0-N ,  3-H ) :   0.8839
B(  4-Si,  5-H ) :   0.9733 B(  4-Si,  6-H ) :   0.9727

Dispersion correction           -0.001344552
FINAL SINGLE POINT ENERGY      -346.667869307329

DIPOLE MOMENT
-------------
                                X             Y             Z
Electronic contribution:      3.27200       0.49824       0.03052
Nuclear contribution   :     -2.82585      -0.13570       0.48707
                        -----------------------------------------
Total Dipole Moment    :      0.44615       0.36254       0.51759
                        -----------------------------------------
Magnitude (a.u.)       :      0.77355
Magnitude (Debye)      :      1.96620

Rotational constants in cm-1:     3.774782     0.091676     0.090607
Rotational constants in MHz : 113165.132300  2748.375951  2716.329267

                             ****ORCA TERMINATED NORMALLY****
TOTAL RUN TIME: 0 days 0 hours 0 minutes 24 seconds 556 msec
