                         Program Version 5.0.3 -  RELEASE  -
|  1> ! PBEh-3c def2/J TightSCF DefGrid3
|  2>
|  3> %maxcore 60000
|  4>
|  5> %pal
|  6> nprocs 4
|  7> end
|  8>
|  9> *xyzfile 0 1 Tetrahelicene.xyz
| 10>
| 11>                          ****END OF INPUT****

CARTESIAN COORDINATES (ANGSTROEM)
---------------------------------
  C      0.254833   -2.464693    0.472956
  C     -0.019810   -1.282158   -0.277163
  C      0.000000    0.000000    0.396813
  C      0.000000    0.000000    1.807892
  C      0.224046   -1.207704    2.528890
  C      0.410438   -2.385303    1.884643
  C      0.019810    1.282158   -0.277163
  C     -0.224046    1.207704    2.528890
  C     -0.410438    2.385303    1.884643
  C     -0.254833    2.464693    0.472956
  H      0.265110   -1.157580    3.609188
  H      0.621763   -3.292343    2.435710
  C     -0.294591    3.716384   -0.175841
  C      0.397316    1.458074   -1.629210
  C      0.000000    3.835271   -1.510721
  C      0.386281    2.694952   -2.230356
  H     -0.533775    4.592746    0.412823
  H     -0.024536    4.802300   -1.994088
  H      0.697164    2.788304   -3.262156
  H      0.756057    0.615336   -2.194777
  C     -0.397316   -1.458074   -1.629210
  H     -0.756057   -0.615336   -2.194777
  C      0.294591   -3.716384   -0.175841
  H      0.533775   -4.592746    0.412823
  C      0.000000   -3.835271   -1.510721
  H      0.024536   -4.802300   -1.994088
  C     -0.386281   -2.694952   -2.230356
  H     -0.697164   -2.788304   -3.262156
  H     -0.621763    3.292343    2.435710
  H     -0.265110    1.157580    3.609188

 Total Charge           Charge          ....    0
 Multiplicity           Mult            ....    1
 Number of Electrons    NEL             ....  120
 Basis Dimension        Dim             ....  294

ORBITAL ENERGIES
----------------

  NO   OCC          E(Eh)            E(eV)
   0   2.0000     -10.470066      -284.9050
   1   2.0000     -10.467710      -284.8409
   2   2.0000     -10.467621      -284.8384
   3   2.0000     -10.463664      -284.7308
   4   2.0000     -10.462410      -284.6967
   5   2.0000     -10.462404      -284.6965
   6   2.0000     -10.452869      -284.4370
   7   2.0000     -10.452834      -284.4361
   8   2.0000     -10.452102      -284.4161
   9   2.0000     -10.452047      -284.4147
  10   2.0000     -10.451884      -284.4102
  11   2.0000     -10.451883      -284.4102
  12   2.0000     -10.451000      -284.3862
  13   2.0000     -10.450977      -284.3855
  14   2.0000     -10.450566      -284.3744
  15   2.0000     -10.450555      -284.3741
  16   2.0000     -10.450091      -284.3614
  17   2.0000     -10.450076      -284.3610
  18   2.0000      -0.995141       -27.0792
  19   2.0000      -0.967430       -26.3251
  20   2.0000      -0.936057       -25.4714
  21   2.0000      -0.899689       -24.4818
  22   2.0000      -0.883345       -24.0370
  23   2.0000      -0.848705       -23.0944
  24   2.0000      -0.840164       -22.8620
  25   2.0000      -0.813285       -22.1306
  26   2.0000      -0.806609       -21.9489
  27   2.0000      -0.724522       -19.7152
  28   2.0000      -0.713865       -19.4253
  29   2.0000      -0.694325       -18.8936
  30   2.0000      -0.684338       -18.6218
  31   2.0000      -0.665486       -18.1088
  32   2.0000      -0.620823       -16.8934
  33   2.0000      -0.595165       -16.1953
  34   2.0000      -0.587357       -15.9828
  35   2.0000      -0.577279       -15.7086
  36   2.0000      -0.545878       -14.8541
  37   2.0000      -0.544504       -14.8167
  38   2.0000      -0.517708       -14.0875
  39   2.0000      -0.506352       -13.7785
  40   2.0000      -0.501944       -13.6586
  41   2.0000      -0.490948       -13.3594
  42   2.0000      -0.485759       -13.2182
  43   2.0000      -0.480591       -13.0775
  44   2.0000      -0.468597       -12.7512
  45   2.0000      -0.459926       -12.5152
  46   2.0000      -0.452499       -12.3131
  47   2.0000      -0.437161       -11.8958
  48   2.0000      -0.427792       -11.6408
  49   2.0000      -0.416543       -11.3347
  50   2.0000      -0.409043       -11.1306
  51   2.0000      -0.399796       -10.8790
  52   2.0000      -0.384054       -10.4506
  53   2.0000      -0.376071       -10.2334
  54   2.0000      -0.355814        -9.6822
  55   2.0000      -0.341597        -9.2953
  56   2.0000      -0.300247        -8.1701
  57   2.0000      -0.298158        -8.1133
  58   2.0000      -0.255590        -6.9550
  59   2.0000      -0.244607        -6.6561
  60   0.0000      -0.037666        -1.0249
  61   0.0000      -0.024092        -0.6556
  62   0.0000       0.012822         0.3489
  63   0.0000       0.020295         0.5523
  64   0.0000       0.062185         1.6921

MULLIKEN ATOMIC CHARGES
-----------------------
   0 C :    0.116260
   1 C :    0.102304
   2 C :    0.085565
   3 C :    0.089273
   4 C :   -0.282313
   5 C :   -0.292851
   6 C :    0.102301
   7 C :   -0.282314
   8 C :   -0.292849
   9 C :    0.116257
  10 H :    0.214848
  11 H :    0.214340
  12 C :   -0.273633
  13 C :   -0.353412
  14 C :   -0.228079
  15 C :   -0.218281
  16 H :    0.214860
  17 H :    0.221047
  18 H :    0.221651
  19 H :    0.255843
  20 C :   -0.353414
  21 H :    0.255844
  22 C :   -0.273633
  23 H :    0.214860
  24 C :   -0.228081
  25 H :    0.221046
  26 C :   -0.218281
  27 H :    0.221651
  28 H :    0.214340
  29 H :    0.214850
Sum of atomic charges:    0.0000000

LOEWDIN ATOMIC CHARGES
----------------------
   0 C :   -0.030948
   1 C :   -0.019042
   2 C :   -0.010212
   3 C :   -0.032465
   4 C :   -0.123547
   5 C :   -0.119513
   6 C :   -0.019042
   7 C :   -0.123547
   8 C :   -0.119513
   9 C :   -0.030948
  10 H :    0.138742
  11 H :    0.138933
  12 C :   -0.121954
  13 C :   -0.130863
  14 C :   -0.134692
  15 C :   -0.135467
  16 H :    0.137476
  17 H :    0.137773
  18 H :    0.137684
  19 H :    0.146755
  20 C :   -0.130863
  21 H :    0.146755
  22 C :   -0.121954
  23 H :    0.137476
  24 C :   -0.134692
  25 H :    0.137773
  26 C :   -0.135467
  27 H :    0.137684
  28 H :    0.138933
  29 H :    0.138742

  Mayer bond orders larger than 0.100000
B(  0-C ,  1-C ) :   1.2776 B(  0-C ,  5-C ) :   1.1824 B(  0-C , 22-C ) :   1.2578
B(  1-C ,  2-C ) :   1.0990 B(  1-C , 20-C ) :   1.2608 B(  2-C ,  3-C ) :   1.3431
B(  2-C ,  6-C ) :   1.0990 B(  3-C ,  4-C ) :   1.1806 B(  3-C ,  7-C ) :   1.1806
B(  4-C ,  5-C ) :   1.6072 B(  4-C , 10-H ) :   0.9247 B(  5-C , 11-H ) :   0.9247
B(  6-C ,  9-C ) :   1.2776 B(  6-C , 13-C ) :   1.2608 B(  7-C ,  8-C ) :   1.6073
B(  7-C , 29-H ) :   0.9247 B(  8-C ,  9-C ) :   1.1824 B(  8-C , 28-H ) :   0.9247
B(  9-C , 12-C ) :   1.2579 B( 12-C , 14-C ) :   1.5107 B( 12-C , 16-H ) :   0.9253
B( 13-C , 15-C ) :   1.5200 B( 13-C , 19-H ) :   0.9056 B( 14-C , 15-C ) :   1.3297
B( 14-C , 17-H ) :   0.9183 B( 15-C , 18-H ) :   0.9187 B( 20-C , 21-H ) :   0.9056
B( 20-C , 26-C ) :   1.5200 B( 22-C , 23-H ) :   0.9253 B( 22-C , 24-C ) :   1.5107
B( 24-C , 25-H ) :   0.9183 B( 24-C , 26-C ) :   1.3297 B( 26-C , 27-H ) :   0.9187

Dispersion correction           -0.024052954
FINAL SINGLE POINT ENERGY      -691.634565188588

DIPOLE MOMENT
-------------
                                X             Y             Z
Electronic contribution:      0.00000      -0.00000       1.97648
Nuclear contribution   :     -0.00000       0.00000      -1.96115
                        -----------------------------------------
Total Dipole Moment    :      0.00000      -0.00000       0.01533
                        -----------------------------------------
Magnitude (a.u.)       :      0.01533
Magnitude (Debye)      :      0.03897

Rotational constants in cm-1:     0.027068     0.011891     0.008418
Rotational constants in MHz :   811.467783   356.474552   252.353196

                             ****ORCA TERMINATED NORMALLY****
TOTAL RUN TIME: 0 days 0 hours 3 minutes 53 seconds 762 msec
