                         Program Version 5.0.3 -  RELEASE  -
|  1> ! PBEh-3c def2/J TightSCF DefGrid3
|  2>
|  3> %maxcore 60000
|  4>
|  5> %pal
|  6> nprocs 4
|  7> end
|  8>
|  9> *xyzfile 0 1 tmethane_180.xyz
| 10>
| 11>                          ****END OF INPUT****

CARTESIAN COORDINATES (ANGSTROEM)
---------------------------------
  C     -0.020706   -0.766788    0.000000
  C      0.020706    0.766788    0.000000
  C      0.695638    1.310388    1.252987
  C      0.695638    1.310388   -1.252987
  H     -1.016433    1.116457    0.000000
  C     -0.695638   -1.310388   -1.252987
  C     -0.695638   -1.310388    1.252987
  H      1.016433   -1.116457    0.000000
  H      0.802904    2.391379    1.199840
  H      0.128511    1.081711    2.149758
  H      1.691713    0.882948    1.370842
  H      0.128511    1.081711   -2.149758
  H      0.802904    2.391379   -1.199840
  H      1.691713    0.882948   -1.370842
  H     -0.802904   -2.391379    1.199840
  H     -0.128511   -1.081711    2.149758
  H     -1.691713   -0.882948    1.370842
  H     -0.802904   -2.391379   -1.199840
  H     -1.691713   -0.882948   -1.370842
  H     -0.128511   -1.081711   -2.149758

 Total Charge           Charge          ....    0
 Multiplicity           Mult            ....    1
 Number of Electrons    NEL             ....   50
 Basis Dimension        Dim             ....  118

ORBITAL ENERGIES
----------------

  NO   OCC          E(Eh)            E(eV)
   0   2.0000     -10.434465      -283.9362
   1   2.0000     -10.434241      -283.9301
   2   2.0000     -10.416220      -283.4398
   3   2.0000     -10.416214      -283.4396
   4   2.0000     -10.416186      -283.4388
   5   2.0000     -10.416136      -283.4375
   6   2.0000      -0.914621       -24.8881
   7   2.0000      -0.833057       -22.6686
   8   2.0000      -0.775434       -21.1006
   9   2.0000      -0.746322       -20.3085
  10   2.0000      -0.680357       -18.5135
  11   2.0000      -0.615884       -16.7591
  12   2.0000      -0.517033       -14.0692
  13   2.0000      -0.515515       -14.0279
  14   2.0000      -0.485517       -13.2116
  15   2.0000      -0.480210       -13.0672
  16   2.0000      -0.443463       -12.0672
  17   2.0000      -0.442733       -12.0474
  18   2.0000      -0.428954       -11.6724
  19   2.0000      -0.412638       -11.2284
  20   2.0000      -0.406163       -11.0523
  21   2.0000      -0.385303       -10.4846
  22   2.0000      -0.361916        -9.8482
  23   2.0000      -0.358847        -9.7647
  24   2.0000      -0.350849        -9.5471
  25   0.0000       0.128943         3.5087
  26   0.0000       0.165786         4.5113
  27   0.0000       0.183131         4.9832
  28   0.0000       0.185356         5.0438
  29   0.0000       0.188627         5.1328

MULLIKEN ATOMIC CHARGES
-----------------------
   0 C :   -0.205780
   1 C :   -0.205780
   2 C :   -0.641268
   3 C :   -0.641268
   4 H :    0.198427
   5 C :   -0.641268
   6 C :   -0.641268
   7 H :    0.198427
   8 H :    0.217722
   9 H :    0.221945
  10 H :    0.205277
  11 H :    0.221945
  12 H :    0.217722
  13 H :    0.205277
  14 H :    0.217722
  15 H :    0.221945
  16 H :    0.205277
  17 H :    0.217722
  18 H :    0.205277
  19 H :    0.221945
Sum of atomic charges:    0.0000000

LOEWDIN ATOMIC CHARGES
----------------------
   0 C :   -0.157398
   1 C :   -0.157398
   2 C :   -0.354461
   3 C :   -0.354461
   4 H :    0.116503
   5 C :   -0.354461
   6 C :   -0.354461
   7 H :    0.116503
   8 H :    0.125280
   9 H :    0.126224
  10 H :    0.123404
  11 H :    0.126224
  12 H :    0.125280
  13 H :    0.123404
  14 H :    0.125280
  15 H :    0.126224
  16 H :    0.123404
  17 H :    0.125280
  18 H :    0.123404
  19 H :    0.126224

  Mayer bond orders larger than 0.100000
B(  0-C ,  1-C ) :   0.9674 B(  0-C ,  5-C ) :   0.9920 B(  0-C ,  6-C ) :   0.9920
B(  0-C ,  7-H ) :   0.9063 B(  1-C ,  2-C ) :   0.9920 B(  1-C ,  3-C ) :   0.9920
B(  1-C ,  4-H ) :   0.9063 B(  2-C ,  8-H ) :   0.9300 B(  2-C ,  9-H ) :   0.9266
B(  2-C , 10-H ) :   0.9272 B(  3-C , 11-H ) :   0.9266 B(  3-C , 12-H ) :   0.9300
B(  3-C , 13-H ) :   0.9272 B(  5-C , 17-H ) :   0.9300 B(  5-C , 18-H ) :   0.9272
B(  5-C , 19-H ) :   0.9266 B(  6-C , 14-H ) :   0.9300 B(  6-C , 15-H ) :   0.9266
B(  6-C , 16-H ) :   0.9272

Dispersion correction           -0.009735335
FINAL SINGLE POINT ENERGY      -236.563448058617

DIPOLE MOMENT
-------------
                                X             Y             Z
Electronic contribution:      0.00000       0.00000      -0.00000
Nuclear contribution   :      0.00000      -0.00000      -0.00000
                        -----------------------------------------
Total Dipole Moment    :      0.00000       0.00000      -0.00000
                        -----------------------------------------
Magnitude (a.u.)       :      0.00000
Magnitude (Debye)      :      0.00000

Rotational constants in cm-1:     0.140388     0.099396     0.063756
Rotational constants in MHz :  4208.737497  2979.827085  1911.361592

                             ****ORCA TERMINATED NORMALLY****
TOTAL RUN TIME: 0 days 0 hours 1 minutes 29 seconds 552 msec
