                         Program Version 5.0.3 -  RELEASE  -
|  1> ! PBEh-3c def2/J TightSCF DefGrid3
|  2>
|  3> %maxcore 60000
|  4>
|  5> %pal
|  6> nprocs 4
|  7> end
|  8>
|  9> *xyzfile 0 1 H2O20fc.xyz
| 10>
| 11>                          ****END OF INPUT****

CARTESIAN COORDINATES (ANGSTROEM)
---------------------------------
  O     -0.004067    1.937085   -5.683749
  O     -2.008102   -0.138543   -5.735177
  O     -0.138543    2.008102    5.735177
  O     -1.937085   -0.004067    5.683749
  O     -1.973768    0.022754    2.808129
  O      1.973768   -0.022754    2.808129
  O     -1.968774    0.021561   -2.893954
  O      1.968774   -0.021561   -2.893954
  O      0.004067   -1.937085   -5.683749
  O      2.008102    0.138543   -5.735177
  O      0.138543   -2.008102    5.735177
  O      1.937085    0.004067    5.683749
  O      1.980931    0.089178   -0.044389
  O      0.022754    1.973768   -2.808129
  O      0.021561    1.968774    2.893954
  O     -0.021561   -1.968774    2.893954
  O     -0.089178    1.980931    0.044389
  O      0.089178   -1.980931    0.044389
  O     -0.022754   -1.973768   -2.808129
  O     -1.980931   -0.089178   -0.044389
  H     -0.795323    1.383824   -5.803811
  H     -0.052988    2.253347   -4.767225
  H     -1.330227   -0.860567   -5.789032
  H     -2.667229   -0.320227   -6.409949
  H     -0.320227    2.667229    6.409949
  H     -0.860567    1.330227    5.789032
  H     -1.383824   -0.795323    5.803811
  H     -2.253347   -0.052988    4.767225
  H     -2.367534   -0.004906    1.921717
  H     -1.351262    0.781491    2.794598
  H      2.367534    0.004906    1.921717
  H      1.351262   -0.781491    2.794598
  H     -2.293172   -0.031615   -3.809368
  H     -1.349650    0.782936   -2.887026
  H      1.349650   -0.782936   -2.887026
  H      2.293172    0.031615   -3.809368
  H      0.052988   -2.253347   -4.767225
  H      0.795323   -1.383824   -5.803811
  H      1.330227    0.860567   -5.789032
  H      2.667229    0.320227   -6.409949
  H      0.860567   -1.330227    5.789032
  H      0.320227   -2.667229    6.409949
  H      1.383824    0.795323    5.803811
  H      2.253347    0.052988    4.767225
  H      1.335722    0.827958   -0.042284
  H      2.352811    0.078322   -0.941136
  H     -0.004906    2.367534   -1.921717
  H      0.781491    1.351262   -2.794598
  H      0.782936    1.349650    2.887026
  H     -0.031615    2.293172    3.809368
  H      0.031615   -2.293172    3.809368
  H     -0.782936   -1.349650    2.887026
  H     -0.827958    1.335722    0.042284
  H     -0.078322    2.352811    0.941136
  H      0.078322   -2.352811    0.941136
  H      0.827958   -1.335722    0.042284
  H      0.004906   -2.367534   -1.921717
  H     -0.781491   -1.351262   -2.794598
  H     -2.352811   -0.078322   -0.941136
  H     -1.335722   -0.827958   -0.042284

 Total Charge           Charge          ....    0
 Multiplicity           Mult            ....    1
 Number of Electrons    NEL             ....  200
 Basis Dimension        Dim             ....  380

ORBITAL ENERGIES
----------------

  NO   OCC          E(Eh)            E(eV)
   0   2.0000     -19.497884      -530.5644
   1   2.0000     -19.497884      -530.5644
   2   2.0000     -19.497860      -530.5637
   3   2.0000     -19.497860      -530.5637
   4   2.0000     -19.490693      -530.3687
   5   2.0000     -19.490660      -530.3678
   6   2.0000     -19.490660      -530.3678
   7   2.0000     -19.490582      -530.3657
   8   2.0000     -19.489443      -530.3347
   9   2.0000     -19.489443      -530.3347
  10   2.0000     -19.489422      -530.3341
  11   2.0000     -19.489421      -530.3341
  12   2.0000     -19.488125      -530.2988
  13   2.0000     -19.488125      -530.2988
  14   2.0000     -19.488102      -530.2982
  15   2.0000     -19.488098      -530.2981
  16   2.0000     -19.478510      -530.0372
  17   2.0000     -19.478510      -530.0372
  18   2.0000     -19.478490      -530.0367
  19   2.0000     -19.478490      -530.0367
  20   2.0000      -1.132025       -30.8040
  21   2.0000      -1.128860       -30.7178
  22   2.0000      -1.124664       -30.6037
  23   2.0000      -1.120836       -30.4995
  24   2.0000      -1.120836       -30.4995
  25   2.0000      -1.119164       -30.4540
  26   2.0000      -1.116177       -30.3727
  27   2.0000      -1.116177       -30.3727
  28   2.0000      -1.114926       -30.3387
  29   2.0000      -1.109419       -30.1888
  30   2.0000      -1.109419       -30.1888
  31   2.0000      -1.103927       -30.0394
  32   2.0000      -1.103038       -30.0152
  33   2.0000      -1.103038       -30.0152
  34   2.0000      -1.099143       -29.9092
  35   2.0000      -1.098011       -29.8784
  36   2.0000      -1.098011       -29.8784
  37   2.0000      -1.095335       -29.8056
  38   2.0000      -1.090458       -29.6729
  39   2.0000      -1.087958       -29.6048
  40   2.0000      -0.610561       -16.6142
  41   2.0000      -0.609422       -16.5832
  42   2.0000      -0.608691       -16.5633
  43   2.0000      -0.608691       -16.5633
  44   2.0000      -0.604792       -16.4572
  45   2.0000      -0.603632       -16.4257
  46   2.0000      -0.602561       -16.3965
  47   2.0000      -0.602561       -16.3965
  48   2.0000      -0.596432       -16.2297
  49   2.0000      -0.593958       -16.1624
  50   2.0000      -0.592909       -16.1339
  51   2.0000      -0.592909       -16.1339
  52   2.0000      -0.589680       -16.0460
  53   2.0000      -0.583725       -15.8840
  54   2.0000      -0.583499       -15.8778
  55   2.0000      -0.583499       -15.8778
  56   2.0000      -0.578964       -15.7544
  57   2.0000      -0.578008       -15.7284
  58   2.0000      -0.577030       -15.7018
  59   2.0000      -0.577030       -15.7018
  60   2.0000      -0.517890       -14.0925
  61   2.0000      -0.505834       -13.7644
  62   2.0000      -0.488419       -13.2906
  63   2.0000      -0.486843       -13.2477
  64   2.0000      -0.486843       -13.2477
  65   2.0000      -0.476415       -12.9639
  66   2.0000      -0.476415       -12.9639
  67   2.0000      -0.468327       -12.7438
  68   2.0000      -0.461631       -12.5616
  69   2.0000      -0.459379       -12.5003
  70   2.0000      -0.459379       -12.5003
  71   2.0000      -0.452391       -12.3102
  72   2.0000      -0.449267       -12.2252
  73   2.0000      -0.441410       -12.0114
  74   2.0000      -0.441410       -12.0114
  75   2.0000      -0.431892       -11.7524
  76   2.0000      -0.429564       -11.6890
  77   2.0000      -0.429564       -11.6890
  78   2.0000      -0.415123       -11.2961
  79   2.0000      -0.405890       -11.0448
  80   2.0000      -0.384495       -10.4626
  81   2.0000      -0.384495       -10.4626
  82   2.0000      -0.383924       -10.4471
  83   2.0000      -0.383702       -10.4411
  84   2.0000      -0.380791       -10.3619
  85   2.0000      -0.378232       -10.2922
  86   2.0000      -0.378232       -10.2922
  87   2.0000      -0.377962       -10.2849
  88   2.0000      -0.376416       -10.2428
  89   2.0000      -0.374627       -10.1941
  90   2.0000      -0.374627       -10.1941
  91   2.0000      -0.372140       -10.1264
  92   2.0000      -0.372140       -10.1264
  93   2.0000      -0.372016       -10.1231
  94   2.0000      -0.370804       -10.0901
  95   2.0000      -0.369326       -10.0499
  96   2.0000      -0.364114        -9.9081
  97   2.0000      -0.363283        -9.8854
  98   2.0000      -0.362522        -9.8647
  99   2.0000      -0.362522        -9.8647
 100   0.0000       0.069458         1.8900
 101   0.0000       0.091039         2.4773
 102   0.0000       0.119201         3.2436
 103   0.0000       0.126114         3.4317
 104   0.0000       0.126114         3.4317

MULLIKEN ATOMIC CHARGES
-----------------------
   0 O :   -0.886967
   1 O :   -0.884272
   2 O :   -0.884272
   3 O :   -0.886967
   4 O :   -0.904666
   5 O :   -0.904666
   6 O :   -0.910424
   7 O :   -0.910424
   8 O :   -0.886967
   9 O :   -0.884272
  10 O :   -0.884272
  11 O :   -0.886967
  12 O :   -0.906319
  13 O :   -0.904666
  14 O :   -0.910424
  15 O :   -0.910424
  16 O :   -0.906319
  17 O :   -0.906319
  18 O :   -0.904666
  19 O :   -0.906319
  20 H :    0.442416
  21 H :    0.450476
  22 H :    0.458875
  23 H :    0.430357
  24 H :    0.430357
  25 H :    0.458875
  26 H :    0.442416
  27 H :    0.450476
  28 H :    0.460278
  29 H :    0.444828
  30 H :    0.460278
  31 H :    0.444828
  32 H :    0.455095
  33 H :    0.444956
  34 H :    0.444956
  35 H :    0.455095
  36 H :    0.450476
  37 H :    0.442416
  38 H :    0.458875
  39 H :    0.430357
  40 H :    0.458875
  41 H :    0.430357
  42 H :    0.442416
  43 H :    0.450476
  44 H :    0.444688
  45 H :    0.460678
  46 H :    0.460278
  47 H :    0.444828
  48 H :    0.444956
  49 H :    0.455095
  50 H :    0.455095
  51 H :    0.444956
  52 H :    0.444688
  53 H :    0.460678
  54 H :    0.460678
  55 H :    0.444688
  56 H :    0.460278
  57 H :    0.444828
  58 H :    0.460678
  59 H :    0.444688
Sum of atomic charges:   -0.0000000

LOEWDIN ATOMIC CHARGES
----------------------
   0 O :   -0.603855
   1 O :   -0.609860
   2 O :   -0.609860
   3 O :   -0.603855
   4 O :   -0.609811
   5 O :   -0.609811
   6 O :   -0.615885
   7 O :   -0.615885
   8 O :   -0.603855
   9 O :   -0.609860
  10 O :   -0.609860
  11 O :   -0.603855
  12 O :   -0.611613
  13 O :   -0.609811
  14 O :   -0.615885
  15 O :   -0.615885
  16 O :   -0.611613
  17 O :   -0.611613
  18 O :   -0.609811
  19 O :   -0.611613
  20 H :    0.300894
  21 H :    0.306385
  22 H :    0.305515
  23 H :    0.311473
  24 H :    0.311473
  25 H :    0.305515
  26 H :    0.300894
  27 H :    0.306385
  28 H :    0.311821
  29 H :    0.298679
  30 H :    0.311821
  31 H :    0.298679
  32 H :    0.306890
  33 H :    0.298912
  34 H :    0.298912
  35 H :    0.306890
  36 H :    0.306385
  37 H :    0.300894
  38 H :    0.305515
  39 H :    0.311473
  40 H :    0.305515
  41 H :    0.311473
  42 H :    0.300894
  43 H :    0.306385
  44 H :    0.298882
  45 H :    0.311573
  46 H :    0.311821
  47 H :    0.298679
  48 H :    0.298912
  49 H :    0.306890
  50 H :    0.306890
  51 H :    0.298912
  52 H :    0.298882
  53 H :    0.311573
  54 H :    0.311573
  55 H :    0.298882
  56 H :    0.311821
  57 H :    0.298679
  58 H :    0.311573
  59 H :    0.298882

  Mayer bond orders larger than 0.100000
B(  0-O , 20-H ) :   0.7159 B(  0-O , 21-H ) :   0.7255 B(  0-O , 38-H ) :   0.1765
B(  1-O , 20-H ) :   0.1044 B(  1-O , 22-H ) :   0.6359 B(  1-O , 23-H ) :   0.7942
B(  1-O , 32-H ) :   0.1011 B(  2-O , 24-H ) :   0.7942 B(  2-O , 25-H ) :   0.6359
B(  2-O , 42-H ) :   0.1044 B(  2-O , 49-H ) :   0.1011 B(  3-O , 25-H ) :   0.1765
B(  3-O , 26-H ) :   0.7159 B(  3-O , 27-H ) :   0.7255 B(  4-O , 28-H ) :   0.7179
B(  4-O , 29-H ) :   0.6718 B(  4-O , 51-H ) :   0.1470 B(  5-O , 30-H ) :   0.7179
B(  5-O , 31-H ) :   0.6718 B(  5-O , 48-H ) :   0.1470 B(  6-O , 32-H ) :   0.7068
B(  6-O , 33-H ) :   0.6748 B(  6-O , 57-H ) :   0.1494 B(  7-O , 34-H ) :   0.6748
B(  7-O , 35-H ) :   0.7068 B(  7-O , 47-H ) :   0.1494 B(  8-O , 22-H ) :   0.1765
B(  8-O , 36-H ) :   0.7255 B(  8-O , 37-H ) :   0.7159 B(  9-O , 35-H ) :   0.1011
B(  9-O , 37-H ) :   0.1044 B(  9-O , 38-H ) :   0.6359 B(  9-O , 39-H ) :   0.7942
B( 10-O , 26-H ) :   0.1044 B( 10-O , 40-H ) :   0.6359 B( 10-O , 41-H ) :   0.7942
B( 10-O , 50-H ) :   0.1011 B( 11-O , 40-H ) :   0.1765 B( 11-O , 42-H ) :   0.7159
B( 11-O , 43-H ) :   0.7255 B( 12-O , 44-H ) :   0.6768 B( 12-O , 45-H ) :   0.7164
B( 12-O , 55-H ) :   0.1445 B( 13-O , 33-H ) :   0.1470 B( 13-O , 46-H ) :   0.7179
B( 13-O , 47-H ) :   0.6718 B( 14-O , 29-H ) :   0.1494 B( 14-O , 48-H ) :   0.6748
B( 14-O , 49-H ) :   0.7068 B( 15-O , 31-H ) :   0.1494 B( 15-O , 50-H ) :   0.7068
B( 15-O , 51-H ) :   0.6748 B( 16-O , 44-H ) :   0.1445 B( 16-O , 52-H ) :   0.6768
B( 16-O , 53-H ) :   0.7164 B( 17-O , 54-H ) :   0.7164 B( 17-O , 55-H ) :   0.6768
B( 17-O , 59-H ) :   0.1445 B( 18-O , 34-H ) :   0.1470 B( 18-O , 56-H ) :   0.7179
B( 18-O , 57-H ) :   0.6718 B( 19-O , 52-H ) :   0.1445 B( 19-O , 58-H ) :   0.7164
B( 19-O , 59-H ) :   0.6768

Dispersion correction           -0.029526413
FINAL SINGLE POINT ENERGY     -1525.558545255416

DIPOLE MOMENT
-------------
                                X             Y             Z
Electronic contribution:     -0.00000       0.00000       0.00000
Nuclear contribution   :      0.00000      -0.00000       0.00000
                        -----------------------------------------
Total Dipole Moment    :     -0.00000       0.00000       0.00000
                        -----------------------------------------
Magnitude (a.u.)       :      0.00000
Magnitude (Debye)      :      0.00000

Rotational constants in cm-1:     0.011920     0.002558     0.002558
Rotational constants in MHz :   357.357727    76.682830    76.682830

                             ****ORCA TERMINATED NORMALLY****
TOTAL RUN TIME: 0 days 0 hours 5 minutes 1 seconds 320 msec
