                         Program Version 5.0.3 -  RELEASE  -
|  1> ! PBEh-3c def2/J TightSCF DefGrid3
|  2>
|  3> %maxcore 60000
|  4>
|  5> %pal
|  6> nprocs 4
|  7> end
|  8>
|  9> *xyzfile 0 1 N2H2.xyz
| 10>
| 11>                          ****END OF INPUT****

CARTESIAN COORDINATES (ANGSTROEM)
---------------------------------
  H      0.984973    0.915254    0.000000
  N      0.000000    0.621593    0.000000
  N      0.000000   -0.621593    0.000000
  H     -0.984973   -0.915254    0.000000

 Total Charge           Charge          ....    0
 Multiplicity           Mult            ....    1
 Number of Electrons    NEL             ....   16
 Basis Dimension        Dim             ....   34

ORBITAL ENERGIES
----------------

  NO   OCC          E(Eh)            E(eV)
   0   2.0000     -14.689406      -399.7191
   1   2.0000     -14.688908      -399.7055
   2   2.0000      -1.134795       -30.8793
   3   2.0000      -0.777507       -21.1570
   4   2.0000      -0.548311       -14.9203
   5   2.0000      -0.505562       -13.7570
   6   2.0000      -0.439980       -11.9725
   7   2.0000      -0.291884        -7.9426
   8   0.0000      -0.010115        -0.2752
   9   0.0000       0.159552         4.3416
  10   0.0000       0.161978         4.4076
  11   0.0000       0.386324        10.5124
  12   0.0000       0.701691        19.0940

MULLIKEN ATOMIC CHARGES
-----------------------
   0 H :    0.326562
   1 N :   -0.326562
   2 N :   -0.326562
   3 H :    0.326562
Sum of atomic charges:    0.0000000

LOEWDIN ATOMIC CHARGES
----------------------
   0 H :    0.211328
   1 N :   -0.211328
   2 N :   -0.211328
   3 H :    0.211328

  Mayer bond orders larger than 0.100000
B(  0-H ,  1-N ) :   0.8433 B(  1-N ,  2-N ) :   2.0033 B(  2-N ,  3-H ) :   0.8433

Dispersion correction           -0.000661497
FINAL SINGLE POINT ENERGY      -110.390549208428

DIPOLE MOMENT
-------------
                                X             Y             Z
Electronic contribution:     -0.00000       0.00000       0.00000
Nuclear contribution   :      0.00000       0.00000       0.00000
                        -----------------------------------------
Total Dipole Moment    :     -0.00000       0.00000       0.00000
                        -----------------------------------------
Magnitude (a.u.)       :      0.00000
Magnitude (Debye)      :      0.00000

Rotational constants in cm-1:    10.205935     1.315269     1.165117
Rotational constants in MHz : 305966.238747 39430.767710 34929.323247

                             ****ORCA TERMINATED NORMALLY****
TOTAL RUN TIME: 0 days 0 hours 0 minutes 30 seconds 699 msec
