                         Program Version 5.0.3 -  RELEASE  -
|  1> ! PBEh-3c def2/J TightSCF DefGrid3
|  2>
|  3> %maxcore 60000
|  4>
|  5> %pal
|  6> nprocs 4
|  7> end
|  8>
|  9> *xyzfile 0 1 04.xyz
| 10>
| 11>                          ****END OF INPUT****

CARTESIAN COORDINATES (ANGSTROEM)
---------------------------------
  C     -2.018650    0.052883    0.000000
  C      2.018650   -0.052883    0.000000
  N     -1.407770   -1.142484    0.000000
  N      1.407770    1.142484    0.000000
  H     -0.387244   -1.207782    0.000000
  H     -3.117062   -0.013701    0.000000
  H     -1.964597   -1.977037    0.000000
  H      1.964597    1.977037    0.000000
  H      0.387244    1.207782    0.000000
  H      3.117062    0.013701    0.000000
  O     -1.452200    1.143634    0.000000
  O      1.452200   -1.143634    0.000000

 Total Charge           Charge          ....    0
 Multiplicity           Mult            ....    1
 Number of Electrons    NEL             ....   48
 Basis Dimension        Dim             ....  102

ORBITAL ENERGIES
----------------

  NO   OCC          E(Eh)            E(eV)
   0   2.0000     -19.469211      -529.7842
   1   2.0000     -19.469209      -529.7841
   2   2.0000     -14.650235      -398.6532
   3   2.0000     -14.650234      -398.6531
   4   2.0000     -10.550314      -287.0886
   5   2.0000     -10.550308      -287.0885
   6   2.0000      -1.146278       -31.1918
   7   2.0000      -1.141698       -31.0672
   8   2.0000      -1.005554       -27.3625
   9   2.0000      -0.999965       -27.2104
  10   2.0000      -0.706866       -19.2348
  11   2.0000      -0.685568       -18.6552
  12   2.0000      -0.622717       -16.9450
  13   2.0000      -0.614057       -16.7093
  14   2.0000      -0.571903       -15.5623
  15   2.0000      -0.520421       -14.1614
  16   2.0000      -0.492809       -13.4100
  17   2.0000      -0.468325       -12.7438
  18   2.0000      -0.466848       -12.7036
  19   2.0000      -0.460849       -12.5403
  20   2.0000      -0.334093        -9.0911
  21   2.0000      -0.325515        -8.8577
  22   2.0000      -0.317296        -8.6341
  23   2.0000      -0.313391        -8.5278
  24   0.0000       0.057957         1.5771
  25   0.0000       0.063802         1.7361
  26   0.0000       0.140525         3.8239
  27   0.0000       0.145651         3.9634
  28   0.0000       0.189687         5.1617

MULLIKEN ATOMIC CHARGES
-----------------------
   0 C :    0.282985
   1 C :    0.282985
   2 N :   -0.789292
   3 N :   -0.789292
   4 H :    0.432515
   5 H :    0.169580
   6 H :    0.361261
   7 H :    0.361261
   8 H :    0.432515
   9 H :    0.169580
  10 O :   -0.457050
  11 O :   -0.457050
Sum of atomic charges:    0.0000000

LOEWDIN ATOMIC CHARGES
----------------------
   0 C :    0.070623
   1 C :    0.070623
   2 N :   -0.373163
   3 N :   -0.373163
   4 H :    0.266976
   5 H :    0.087306
   6 H :    0.253259
   7 H :    0.253259
   8 H :    0.266977
   9 H :    0.087306
  10 O :   -0.305002
  11 O :   -0.305002

  Mayer bond orders larger than 0.100000
B(  0-C ,  2-N ) :   1.2831 B(  0-C ,  5-H ) :   0.8860 B(  0-C , 10-O ) :   1.8558
B(  1-C ,  3-N ) :   1.2831 B(  1-C ,  9-H ) :   0.8860 B(  1-C , 11-O ) :   1.8558
B(  2-N ,  4-H ) :   0.6694 B(  2-N ,  6-H ) :   0.8349 B(  2-N , 10-O ) :   0.1175
B(  3-N ,  7-H ) :   0.8349 B(  3-N ,  8-H ) :   0.6694 B(  3-N , 11-O ) :   0.1175
B(  4-H , 11-O ) :   0.1440 B(  8-H , 10-O ) :   0.1440

Dispersion correction           -0.004456922
FINAL SINGLE POINT ENERGY      -339.077301596605

DIPOLE MOMENT
-------------
                                X             Y             Z
Electronic contribution:      0.00000       0.00000       0.00000
Nuclear contribution   :      0.00000       0.00000       0.00000
                        -----------------------------------------
Total Dipole Moment    :      0.00000       0.00000       0.00000
                        -----------------------------------------
Magnitude (a.u.)       :      0.00000
Magnitude (Debye)      :      0.00000

Rotational constants in cm-1:     0.188809     0.067816     0.049895
Rotational constants in MHz :  5660.349749  2033.080363  1495.814709

                             ****ORCA TERMINATED NORMALLY****
TOTAL RUN TIME: 0 days 0 hours 1 minutes 48 seconds 815 msec
