                         Program Version 5.0.3 -  RELEASE  -
|  1> ! PBEh-3c def2/J TightSCF DefGrid3
|  2>
|  3> %maxcore 60000
|  4>
|  5> %pal
|  6> nprocs 4
|  7> end
|  8>
|  9> *xyzfile 0 2 geh3.xyz
| 10>
| 11>                          ****END OF INPUT****

CARTESIAN COORDINATES (ANGSTROEM)
---------------------------------
  Ge     0.000000    0.000000    0.352146
  H      0.732862    1.269354   -0.117382
  H      0.732862   -1.269354   -0.117382
  H     -1.465723    0.000000   -0.117382

 Total Charge           Charge          ....    0
 Multiplicity           Mult            ....    2
 Number of Electrons    NEL             ....   35
 Basis Dimension        Dim             ....   38

ORBITAL ENERGIES
----------------
                 SPIN UP ORBITALS
  NO   OCC          E(Eh)            E(eV)
   0   1.0000    -400.262130    -10891.6863
   1   1.0000     -50.398855     -1371.4226
   2   1.0000     -44.814862     -1219.4744
   3   1.0000     -44.812096     -1219.3991
   4   1.0000     -44.812096     -1219.3991
   5   1.0000      -6.495528      -176.7523
   6   1.0000      -4.618424      -125.6737
   7   1.0000      -4.613198      -125.5315
   8   1.0000      -4.613198      -125.5315
   9   1.0000      -1.343033       -36.5458
  10   1.0000      -1.342688       -36.5364
  11   1.0000      -1.342688       -36.5364
  12   1.0000      -1.339104       -36.4389
  13   1.0000      -1.339103       -36.4389
  14   1.0000      -0.620423       -16.8826
  15   1.0000      -0.400160       -10.8889
  16   1.0000      -0.400160       -10.8889
  17   1.0000      -0.259840        -7.0706
  18   0.0000       0.086100         2.3429
  19   0.0000       0.086104         2.3430
  20   0.0000       0.100323         2.7299
  21   0.0000       0.165201         4.4954
  22   0.0000       0.349609         9.5134

                 SPIN DOWN ORBITALS
  NO   OCC          E(Eh)            E(eV)
   0   1.0000    -400.260376    -10891.6385
   1   1.0000     -50.398126     -1371.4027
   2   1.0000     -44.812187     -1219.4016
   3   1.0000     -44.811697     -1219.3883
   4   1.0000     -44.811697     -1219.3883
   5   1.0000      -6.492585      -176.6722
   6   1.0000      -4.612290      -125.5068
   7   1.0000      -4.612289      -125.5068
   8   1.0000      -4.611420      -125.4831
   9   1.0000      -1.340136       -36.4669
  10   1.0000      -1.340135       -36.4669
  11   1.0000      -1.338431       -36.4206
  12   1.0000      -1.337189       -36.3868
  13   1.0000      -1.337189       -36.3868
  14   1.0000      -0.590438       -16.0666
  15   1.0000      -0.391042       -10.6408
  16   1.0000      -0.391041       -10.6408
  17   0.0000      -0.079525        -2.1640
  18   0.0000       0.103936         2.8282
  19   0.0000       0.103937         2.8283
  20   0.0000       0.114540         3.1168
  21   0.0000       0.184429         5.0186

MULLIKEN ATOMIC CHARGES AND SPIN POPULATIONS
--------------------------------------------
   0 Ge:   -0.079875    0.966289
   1 H :    0.026627    0.011238
   2 H :    0.026627    0.011238
   3 H :    0.026622    0.011235
Sum of atomic charges         :   -0.0000000

LOEWDIN ATOMIC CHARGES AND SPIN POPULATIONS
-------------------------------------------
   0 Ge:   -0.081369    0.965100
   1 H :    0.027123    0.011633
   2 H :    0.027123    0.011633
   3 H :    0.027123    0.011634

  Mayer bond orders larger than 0.100000
B(  0-Ge,  1-H ) :   0.9564 B(  0-Ge,  2-H ) :   0.9564 B(  0-Ge,  3-H ) :   0.9564

Dispersion correction           -0.000651941
FINAL SINGLE POINT ENERGY     -2077.727682236295

DIPOLE MOMENT
-------------
                                X             Y             Z
Electronic contribution:      0.00001       0.00000       1.42041
Nuclear contribution   :      0.00000       0.00000      -1.41988
                        -----------------------------------------
Total Dipole Moment    :      0.00001       0.00000       0.00054
                        -----------------------------------------
Magnitude (a.u.)       :      0.00054
Magnitude (Debye)      :      0.00137

Rotational constants in cm-1:     4.335483     4.335483     2.594843
Rotational constants in MHz : 129974.518985 129974.518868 77791.433446

                             ****ORCA TERMINATED NORMALLY****
TOTAL RUN TIME: 0 days 0 hours 1 minutes 42 seconds 179 msec
