                         Program Version 5.0.3 -  RELEASE  -
|  1> ! PBEh-3c def2/J TightSCF DefGrid3
|  2>
|  3> %maxcore 60000
|  4>
|  5> %pal
|  6> nprocs 4
|  7> end
|  8>
|  9> *xyzfile -1 1 hoch3fcomp2.xyz
| 10>
| 11>                          ****END OF INPUT****

CARTESIAN COORDINATES (ANGSTROEM)
---------------------------------
  F      2.249533   -0.161635   -0.009064
  C      0.839893    0.020307    0.003108
  H      0.351784   -0.871344   -0.364816
  H      0.522423    0.213180    1.019583
  H      0.600224    0.862293   -0.634546
  O     -1.818967   -0.158320   -0.005980
  H     -2.744889    0.095519   -0.008285

 Total Charge           Charge          ....   -1
 Multiplicity           Mult            ....    1
 Number of Electrons    NEL             ....   28
 Basis Dimension        Dim             ....   53

ORBITAL ENERGIES
----------------

  NO   OCC          E(Eh)            E(eV)
   0   2.0000     -24.881949      -677.0723
   1   2.0000     -19.043758      -518.2070
   2   2.0000     -10.300850      -280.3004
   3   2.0000      -1.108471       -30.1630
   4   2.0000      -0.629659       -17.1339
   5   2.0000      -0.577291       -15.7089
   6   2.0000      -0.350520        -9.5381
   7   2.0000      -0.348392        -9.4802
   8   2.0000      -0.346338        -9.4243
   9   2.0000      -0.215290        -5.8583
  10   2.0000      -0.212116        -5.7720
  11   2.0000      -0.089592        -2.4379
  12   2.0000       0.059399         1.6163
  13   2.0000       0.059857         1.6288
  14   0.0000       0.339703         9.2438
  15   0.0000       0.383788        10.4434
  16   0.0000       0.414951        11.2914
  17   0.0000       0.428459        11.6590
  18   0.0000       0.472821        12.8661

MULLIKEN ATOMIC CHARGES
-----------------------
   0 F :   -0.437140
   1 C :   -0.245378
   2 H :    0.225959
   3 H :    0.189470
   4 H :    0.174132
   5 O :   -1.135070
   6 H :    0.228027
Sum of atomic charges:   -1.0000000

LOEWDIN ATOMIC CHARGES
----------------------
   0 F :   -0.328908
   1 C :   -0.112458
   2 H :    0.131629
   3 H :    0.113834
   4 H :    0.106290
   5 O :   -1.074195
   6 H :    0.163808

  Mayer bond orders larger than 0.100000
B(  0-F ,  1-C ) :   0.8493 B(  1-C ,  2-H ) :   0.9041 B(  1-C ,  3-H ) :   0.9282
B(  1-C ,  4-H ) :   0.9348 B(  5-O ,  6-H ) :   0.9082

Dispersion correction           -0.001320875
FINAL SINGLE POINT ENERGY      -215.049514186726

DIPOLE MOMENT
-------------
                                X             Y             Z
Electronic contribution:      6.95174      -0.44256      -0.02589
Nuclear contribution   :     -4.55226       0.71006       0.03167
                        -----------------------------------------
Total Dipole Moment    :      2.39948       0.26750       0.00578
                        -----------------------------------------
Magnitude (a.u.)       :      2.41435
Magnitude (Debye)      :      6.13680

Rotational constants in cm-1:     4.735337     0.106948     0.106690
Rotational constants in MHz : 141961.821207  3206.229086  3198.479728

                             ****ORCA TERMINATED NORMALLY****
TOTAL RUN TIME: 0 days 0 hours 0 minutes 35 seconds 466 msec
