                         Program Version 5.0.3 -  RELEASE  -
|  1> ! PBEh-3c def2/J TightSCF DefGrid3
|  2>
|  3> %maxcore 60000
|  4>
|  5> %pal
|  6> nprocs 4
|  7> end
|  8>
|  9> *xyzfile 1 2 he2+_1.5.xyz
| 10>
| 11>                          ****END OF INPUT****

CARTESIAN COORDINATES (ANGSTROEM)
---------------------------------
  He     0.000000    0.000000   -0.805653
  He     0.000000    0.000000    0.805653

 Total Charge           Charge          ....    1
 Multiplicity           Mult            ....    2
 Number of Electrons    NEL             ....    3
 Basis Dimension        Dim             ....    4

ORBITAL ENERGIES
----------------
                 SPIN UP ORBITALS
  NO   OCC          E(Eh)            E(eV)
   0   1.0000      -1.423126       -38.7252
   1   1.0000      -1.339617       -36.4528
   2   0.0000       0.593911        16.1611
   3   0.0000       0.813333        22.1319

                 SPIN DOWN ORBITALS
  NO   OCC          E(Eh)            E(eV)
   0   1.0000      -1.190944       -32.4072
   1   0.0000      -0.953836       -25.9552
   2   0.0000       0.699988        19.0476
   3   0.0000       0.909454        24.7475

MULLIKEN ATOMIC CHARGES AND SPIN POPULATIONS
--------------------------------------------
   0 He:    0.500000    0.500000
   1 He:    0.500000    0.500000
Sum of atomic charges         :    1.0000000

LOEWDIN ATOMIC CHARGES AND SPIN POPULATIONS
-------------------------------------------
   0 He:    0.500000    0.500000
   1 He:    0.500000    0.500000

  Mayer bond orders larger than 0.100000
B(  0-He,  1-He) :   0.4976

Dispersion correction           -0.000039350
FINAL SINGLE POINT ENERGY        -4.950927622150

DIPOLE MOMENT
-------------
                                X             Y             Z
Electronic contribution:     -0.00000      -0.00000      -0.00000
Nuclear contribution   :      0.00000       0.00000       0.00000
                        -----------------------------------------
Total Dipole Moment    :      0.00000       0.00000      -0.00000
                        -----------------------------------------
Magnitude (a.u.)       :      0.00000
Magnitude (Debye)      :      0.00000

Rotational constants in cm-1:     0.000000     3.244035     3.244035
Rotational constants in MHz :     0.000000 97253.733909 97253.733909

                             ****ORCA TERMINATED NORMALLY****
TOTAL RUN TIME: 0 days 0 hours 0 minutes 43 seconds 508 msec
