                         Program Version 5.0.3 -  RELEASE  -
|  1> ! PBEh-3c def2/J TightSCF DefGrid3
|  2>
|  3> %maxcore 60000
|  4>
|  5> %pal
|  6> nprocs 4
|  7> end
|  8>
|  9> *xyzfile 0 1 47.xyz
| 10>
| 11>                          ****END OF INPUT****

CARTESIAN COORDINATES (ANGSTROEM)
---------------------------------
  C      0.735573    1.207806   -2.665406
  H      1.309600    2.108927   -2.832974
  C      1.381471   -0.024661   -2.579358
  H      2.456899   -0.079919   -2.678827
  C      0.641424   -1.185848   -2.362749
  H      1.142718   -2.141312   -2.291917
  C     -0.744602   -1.114949   -2.234244
  H     -1.318142   -2.016707   -2.067936
  C     -1.390650    0.117376   -2.319045
  H     -2.466041    0.173194   -2.218137
  C     -0.650513    1.279001   -2.533796
  H     -1.151444    2.235292   -2.597038
  C      0.164490    0.247596    1.093748
  H      0.286617    0.473079    0.043322
  C     -0.926591   -0.507303    1.521084
  H     -1.647096   -0.863817    0.797390
  C     -1.087291   -0.801428    2.874034
  H     -1.934399   -1.387397    3.204282
  C     -0.155409   -0.340375    3.802528
  H     -0.279302   -0.568341    4.852536
  C      0.936176    0.414727    3.377288
  H      1.659295    0.772560    4.097671
  C      1.094980    0.708212    2.023797
  H      1.942238    1.294287    1.693749

 Total Charge           Charge          ....    0
 Multiplicity           Mult            ....    1
 Number of Electrons    NEL             ....   84
 Basis Dimension        Dim             ....  204

ORBITAL ENERGIES
----------------

  NO   OCC          E(Eh)            E(eV)
   0   2.0000     -10.454222      -284.4738
   1   2.0000     -10.453997      -284.4677
   2   2.0000     -10.453727      -284.4604
   3   2.0000     -10.453309      -284.4490
   4   2.0000     -10.453267      -284.4479
   5   2.0000     -10.452793      -284.4350
   6   2.0000     -10.441563      -284.1294
   7   2.0000     -10.441224      -284.1202
   8   2.0000     -10.440780      -284.1081
   9   2.0000     -10.439802      -284.0814
  10   2.0000     -10.439220      -284.0656
  11   2.0000     -10.436520      -283.9922
  12   2.0000      -0.957961       -26.0675
  13   2.0000      -0.943891       -25.6846
  14   2.0000      -0.840914       -22.8824
  15   2.0000      -0.840538       -22.8722
  16   2.0000      -0.827575       -22.5195
  17   2.0000      -0.826814       -22.4988
  18   2.0000      -0.683937       -18.6109
  19   2.0000      -0.683831       -18.6080
  20   2.0000      -0.670968       -18.2580
  21   2.0000      -0.670360       -18.2414
  22   2.0000      -0.596964       -16.2442
  23   2.0000      -0.583960       -15.8903
  24   2.0000      -0.530341       -14.4313
  25   2.0000      -0.517786       -14.0897
  26   2.0000      -0.513503       -13.9731
  27   2.0000      -0.500178       -13.6105
  28   2.0000      -0.486810       -13.2468
  29   2.0000      -0.486374       -13.2349
  30   2.0000      -0.475243       -12.9320
  31   2.0000      -0.474045       -12.8994
  32   2.0000      -0.425256       -11.5718
  33   2.0000      -0.412991       -11.2380
  34   2.0000      -0.403099       -10.9689
  35   2.0000      -0.402915       -10.9639
  36   2.0000      -0.390165       -10.6169
  37   2.0000      -0.387499       -10.5444
  38   2.0000      -0.299472        -8.1490
  39   2.0000      -0.298620        -8.1259
  40   2.0000      -0.285059        -7.7569
  41   2.0000      -0.282590        -7.6897
  42   0.0000       0.012076         0.3286
  43   0.0000       0.013331         0.3627
  44   0.0000       0.027458         0.7472
  45   0.0000       0.027929         0.7600
  46   0.0000       0.135129         3.6770

MULLIKEN ATOMIC CHARGES
-----------------------
   0 C :   -0.228667
   1 H :    0.223637
   2 C :   -0.225141
   3 H :    0.223874
   4 C :   -0.216544
   5 H :    0.225131
   6 C :   -0.224705
   7 H :    0.224202
   8 C :   -0.226475
   9 H :    0.224289
  10 C :   -0.222759
  11 H :    0.224727
  12 C :   -0.213141
  13 H :    0.252872
  14 C :   -0.226761
  15 H :    0.213761
  16 C :   -0.218682
  17 H :    0.214601
  18 C :   -0.222517
  19 H :    0.215695
  20 C :   -0.219509
  21 H :    0.215509
  22 C :   -0.227333
  23 H :    0.213937
Sum of atomic charges:   -0.0000000

LOEWDIN ATOMIC CHARGES
----------------------
   0 C :   -0.139651
   1 H :    0.137301
   2 C :   -0.137405
   3 H :    0.137526
   4 C :   -0.132729
   5 H :    0.138518
   6 C :   -0.137078
   7 H :    0.137157
   8 C :   -0.138343
   9 H :    0.137309
  10 C :   -0.136670
  11 H :    0.138040
  12 C :   -0.128944
  13 H :    0.147404
  14 C :   -0.135820
  15 H :    0.133595
  16 C :   -0.138648
  17 H :    0.133288
  18 C :   -0.139712
  19 H :    0.133680
  20 C :   -0.138242
  21 H :    0.133642
  22 C :   -0.137813
  23 H :    0.133596

  Mayer bond orders larger than 0.100000
B(  0-C ,  1-H ) :   0.9194 B(  0-C ,  2-C ) :   1.4235 B(  0-C , 10-C ) :   1.4251
B(  2-C ,  3-H ) :   0.9192 B(  2-C ,  4-C ) :   1.4254 B(  4-C ,  5-H ) :   0.9186
B(  4-C ,  6-C ) :   1.4263 B(  6-C ,  7-H ) :   0.9186 B(  6-C ,  8-C ) :   1.4218
B(  8-C ,  9-H ) :   0.9188 B(  8-C , 10-C ) :   1.4256 B( 10-C , 11-H ) :   0.9189
B( 12-C , 13-H ) :   0.9005 B( 12-C , 14-C ) :   1.4295 B( 12-C , 22-C ) :   1.4281
B( 14-C , 15-H ) :   0.9205 B( 14-C , 16-C ) :   1.4218 B( 16-C , 17-H ) :   0.9219
B( 16-C , 18-C ) :   1.4260 B( 18-C , 19-H ) :   0.9211 B( 18-C , 20-C ) :   1.4280
B( 20-C , 21-H ) :   0.9212 B( 20-C , 22-C ) :   1.4230 B( 22-C , 23-H ) :   0.9225

Dispersion correction           -0.014459140
FINAL SINGLE POINT ENERGY      -463.456201104388

DIPOLE MOMENT
-------------
                                X             Y             Z
Electronic contribution:      0.01791       0.00019      -0.18843
Nuclear contribution   :      0.00163      -0.00027       0.00367
                        -----------------------------------------
Total Dipole Moment    :      0.01954      -0.00007      -0.18476
                        -----------------------------------------
Magnitude (a.u.)       :      0.18579
Magnitude (Debye)      :      0.47224

Rotational constants in cm-1:     0.063985     0.015095     0.014018
Rotational constants in MHz :  1918.232698   452.523605   420.260254

                             ****ORCA TERMINATED NORMALLY****
TOTAL RUN TIME: 0 days 0 hours 2 minutes 16 seconds 816 msec
