                         Program Version 5.0.3 -  RELEASE  -
|  1> ! PBEh-3c def2/J TightSCF DefGrid3
|  2>
|  3> %maxcore 60000
|  4>
|  5> %pal
|  6> nprocs 4
|  7> end
|  8>
|  9> *xyzfile -1 1 17.xyz
| 10>
| 11>                          ****END OF INPUT****

CARTESIAN COORDINATES (ANGSTROEM)
---------------------------------
  S     -0.433599   -0.520870    0.082121
  H      0.875039   -0.232505    0.073758
  H     -0.998635    1.364536    0.059923
  F     -1.294737    2.304797    0.048571

 Total Charge           Charge          ....   -1
 Multiplicity           Mult            ....    1
 Number of Electrons    NEL             ....   28
 Basis Dimension        Dim             ....   37

ORBITAL ENERGIES
----------------

  NO   OCC          E(Eh)            E(eV)
   0   2.0000     -89.277093     -2429.3532
   1   2.0000     -24.805385      -674.9888
   2   2.0000      -7.915908      -215.4028
   3   2.0000      -5.807780      -158.0377
   4   2.0000      -5.802188      -157.8855
   5   2.0000      -5.800543      -157.8408
   6   2.0000      -1.031737       -28.0750
   7   2.0000      -0.499639       -13.5959
   8   2.0000      -0.341254        -9.2860
   9   2.0000      -0.216905        -5.9023
  10   2.0000      -0.216304        -5.8859
  11   2.0000      -0.172188        -4.6855
  12   2.0000      -0.037731        -1.0267
  13   2.0000      -0.023008        -0.6261
  14   0.0000       0.333517         9.0755
  15   0.0000       0.436283        11.8719
  16   0.0000       0.710118        19.3233
  17   0.0000       0.841460        22.8973
  18   0.0000       0.996403        27.1135

MULLIKEN ATOMIC CHARGES
-----------------------
   0 S :   -0.892713
   1 H :    0.056624
   2 H :    0.463787
   3 F :   -0.627698
Sum of atomic charges:   -1.0000000

LOEWDIN ATOMIC CHARGES
----------------------
   0 S :   -0.803542
   1 H :    0.023793
   2 H :    0.297501
   3 F :   -0.517752

  Mayer bond orders larger than 0.100000
B(  0-S ,  1-H ) :   0.9535 B(  0-S ,  2-H ) :   0.2900 B(  2-H ,  3-F ) :   0.5419

Dispersion correction           -0.000683535
FINAL SINGLE POINT ENERGY      -498.632195635723

DIPOLE MOMENT
-------------
                                X             Y             Z
Electronic contribution:     -1.59951       2.01876      -0.02056
Nuclear contribution   :      1.76635      -1.54813       0.01401
                        -----------------------------------------
Total Dipole Moment    :      0.16684       0.47063      -0.00656
                        -----------------------------------------
Magnitude (a.u.)       :      0.49937
Magnitude (Debye)      :      1.26930

Rotational constants in cm-1:     9.689998     0.158506     0.155955
Rotational constants in MHz : 290498.819010  4751.897834  4675.418657

                             ****ORCA TERMINATED NORMALLY****
TOTAL RUN TIME: 0 days 0 hours 0 minutes 39 seconds 407 msec
