                         Program Version 5.0.3 -  RELEASE  -
|  1> ! PBEh-3c def2/J TightSCF DefGrid3
|  2>
|  3> %maxcore 60000
|  4>
|  5> %pal
|  6> nprocs 4
|  7> end
|  8>
|  9> *xyzfile 0 1 23B.xyz
| 10>
| 11>                          ****END OF INPUT****

CARTESIAN COORDINATES (ANGSTROEM)
---------------------------------
  O      0.726080    0.978748    0.121012
  H      1.689024    0.994173    0.173258
  H      0.471923    1.907466    0.177926

 Total Charge           Charge          ....    0
 Multiplicity           Mult            ....    1
 Number of Electrons    NEL             ....   10
 Basis Dimension        Dim             ....   19

ORBITAL ENERGIES
----------------

  NO   OCC          E(Eh)            E(eV)
   0   2.0000     -19.475132      -529.9453
   1   2.0000      -1.100847       -29.9556
   2   2.0000      -0.579490       -15.7687
   3   2.0000      -0.434588       -11.8257
   4   2.0000      -0.356215        -9.6931
   5   0.0000       0.129999         3.5375
   6   0.0000       0.207690         5.6515
   7   0.0000       0.871539        23.7158
   8   0.0000       0.977191        26.5907
   9   0.0000       0.991628        26.9836

MULLIKEN ATOMIC CHARGES
-----------------------
   0 O :   -0.815447
   1 H :    0.407729
   2 H :    0.407719
Sum of atomic charges:   -0.0000000

LOEWDIN ATOMIC CHARGES
----------------------
   0 O :   -0.597623
   1 H :    0.298807
   2 H :    0.298816

  Mayer bond orders larger than 0.100000
B(  0-O ,  1-H ) :   0.8161 B(  0-O ,  2-H ) :   0.8162

Dispersion correction           -0.000209578
FINAL SINGLE POINT ENERGY       -76.257945588209

DIPOLE MOMENT
-------------
                                X             Y             Z
Electronic contribution:     -0.08027      -0.10696      -0.01236
Nuclear contribution   :      0.58997       0.78587       0.09086
                        -----------------------------------------
Total Dipole Moment    :      0.50970       0.67891       0.07850
                        -----------------------------------------
Magnitude (a.u.)       :      0.85257
Magnitude (Debye)      :      2.16706

Rotational constants in cm-1:    26.792602    14.445402     9.385272
Rotational constants in MHz : 803221.994206 433062.250791 281363.388803

                             ****ORCA TERMINATED NORMALLY****
TOTAL RUN TIME: 0 days 0 hours 0 minutes 12 seconds 932 msec
