                         Program Version 5.0.3 -  RELEASE  -
|  1> ! PBEh-3c def2/J TightSCF DefGrid3
|  2>
|  3> %maxcore 60000
|  4>
|  5> %pal
|  6> nprocs 4
|  7> end
|  8>
|  9> *xyzfile 0 1 H_g+x-g-.xyz
| 10>
| 11>                          ****END OF INPUT****

CARTESIAN COORDINATES (ANGSTROEM)
---------------------------------
  C     -1.976582    1.062084   -0.047150
  C     -1.924255   -0.458773   -0.127927
  C     -0.522089   -1.027426   -0.340710
  C      0.464746   -0.679032    0.783379
  C      1.368916    0.517724    0.482695
  C      2.437085    0.194333   -0.555655
  H     -1.554005    1.514598   -0.944748
  H     -1.418017    1.436238    0.809453
  H     -3.003099    1.412289    0.051698
  H     -2.569966   -0.796555   -0.940765
  H     -2.337635   -0.882840    0.790390
  H     -0.132756   -0.671002   -1.297797
  H     -0.605590   -2.111180   -0.434120
  H      1.106839   -1.538054    0.991013
  H     -0.099322   -0.494827    1.701359
  H      1.856533    0.839722    1.404712
  H      0.767534    1.359941    0.139127
  H      3.063629    1.060076   -0.764859
  H      1.994929   -0.127646   -1.497602
  H      3.083109   -0.609670   -0.202499

 Total Charge           Charge          ....    0
 Multiplicity           Mult            ....    1
 Number of Electrons    NEL             ....   50
 Basis Dimension        Dim             ....  118

ORBITAL ENERGIES
----------------

  NO   OCC          E(Eh)            E(eV)
   0   2.0000     -10.427094      -283.7357
   1   2.0000     -10.426150      -283.7100
   2   2.0000     -10.425150      -283.6827
   3   2.0000     -10.424803      -283.6733
   4   2.0000     -10.418614      -283.5049
   5   2.0000     -10.418079      -283.4903
   6   2.0000      -0.898026       -24.4365
   7   2.0000      -0.850868       -23.1533
   8   2.0000      -0.785505       -21.3747
   9   2.0000      -0.727596       -19.7989
  10   2.0000      -0.661363       -17.9966
  11   2.0000      -0.625200       -17.0126
  12   2.0000      -0.528871       -14.3913
  13   2.0000      -0.516586       -14.0570
  14   2.0000      -0.493724       -13.4349
  15   2.0000      -0.478178       -13.0119
  16   2.0000      -0.444284       -12.0896
  17   2.0000      -0.443099       -12.0573
  18   2.0000      -0.424895       -11.5620
  19   2.0000      -0.401788       -10.9332
  20   2.0000      -0.396103       -10.7785
  21   2.0000      -0.383177       -10.4268
  22   2.0000      -0.362244        -9.8572
  23   2.0000      -0.356582        -9.7031
  24   2.0000      -0.351614        -9.5679
  25   0.0000       0.135411         3.6847
  26   0.0000       0.159490         4.3399
  27   0.0000       0.168384         4.5820
  28   0.0000       0.175861         4.7854
  29   0.0000       0.176530         4.8036

MULLIKEN ATOMIC CHARGES
-----------------------
   0 C :   -0.647454
   1 C :   -0.419265
   2 C :   -0.416826
   3 C :   -0.429186
   4 C :   -0.430412
   5 C :   -0.638725
   6 H :    0.207286
   7 H :    0.215057
   8 H :    0.222025
   9 H :    0.212109
  10 H :    0.205814
  11 H :    0.206303
  12 H :    0.218488
  13 H :    0.213226
  14 H :    0.214432
  15 H :    0.212910
  16 H :    0.215983
  17 H :    0.218780
  18 H :    0.211095
  19 H :    0.208360
Sum of atomic charges:   -0.0000000

LOEWDIN ATOMIC CHARGES
----------------------
   0 C :   -0.366004
   1 C :   -0.245127
   2 C :   -0.242733
   3 C :   -0.243384
   4 C :   -0.248832
   5 C :   -0.363636
   6 H :    0.122132
   7 H :    0.123748
   8 H :    0.126243
   9 H :    0.121017
  10 H :    0.118488
  11 H :    0.118449
  12 H :    0.123889
  13 H :    0.121970
  14 H :    0.121147
  15 H :    0.121516
  16 H :    0.121011
  17 H :    0.125928
  18 H :    0.121726
  19 H :    0.122450

  Mayer bond orders larger than 0.100000
B(  0-C ,  1-C ) :   0.9929 B(  0-C ,  6-H ) :   0.9287 B(  0-C ,  7-H ) :   0.9236
B(  0-C ,  8-H ) :   0.9298 B(  1-C ,  2-C ) :   0.9963 B(  1-C ,  9-H ) :   0.9236
B(  1-C , 10-H ) :   0.9201 B(  2-C ,  3-C ) :   0.9466 B(  2-C , 11-H ) :   0.9185
B(  2-C , 12-H ) :   0.9296 B(  3-C ,  4-C ) :   0.9810 B(  3-C , 13-H ) :   0.9272
B(  3-C , 14-H ) :   0.9265 B(  4-C ,  5-C ) :   0.9941 B(  4-C , 15-H ) :   0.9241
B(  4-C , 16-H ) :   0.9146 B(  5-C , 17-H ) :   0.9320 B(  5-C , 18-H ) :   0.9241
B(  5-C , 19-H ) :   0.9292

Dispersion correction           -0.009277118
FINAL SINGLE POINT ENERGY      -236.556736347504

DIPOLE MOMENT
-------------
                                X             Y             Z
Electronic contribution:     -0.41642      -1.04188       0.52427
Nuclear contribution   :      0.39798       1.02276      -0.50900
                        -----------------------------------------
Total Dipole Moment    :     -0.01845      -0.01912       0.01527
                        -----------------------------------------
Magnitude (a.u.)       :      0.03065
Magnitude (Debye)      :      0.07789

Rotational constants in cm-1:     0.194962     0.061349     0.055670
Rotational constants in MHz :  5844.802696  1839.209552  1668.936304

                             ****ORCA TERMINATED NORMALLY****
TOTAL RUN TIME: 0 days 0 hours 1 minutes 32 seconds 143 msec
