                         Program Version 5.0.3 -  RELEASE  -
|  1> ! PBEh-3c def2/J TightSCF DefGrid3
|  2>
|  3> %maxcore 60000
|  4>
|  5> %pal
|  6> nprocs 4
|  7> end
|  8>
|  9> *xyzfile 1 1 sugar4.xyz
| 10>
| 11>                          ****END OF INPUT****

CARTESIAN COORDINATES (ANGSTROEM)
---------------------------------
  C     -2.765579   -0.854429   -0.150913
  C     -1.460063   -0.761601    0.636386
  C     -0.254941   -0.635445   -0.287744
  C      1.092754   -0.267651    0.337350
  C      1.218132    1.269259    0.169229
  O      0.715167    2.022614    1.213409
  C      0.526383    1.519192   -1.165259
  O     -2.878686    0.345889   -0.914151
  O      2.046745   -0.940244   -0.419678
  O     -1.470750    0.329724    1.515810
  O     -0.483699    0.448468   -1.267350
  C      3.324907   -1.039421    0.172077
  H     -2.751890   -1.740157   -0.795526
  H     -3.614855   -0.950883    0.532815
  H     -1.326911   -1.715773    1.166871
  H     -0.157871   -1.553241   -0.871949
  H      1.134260   -0.544455    1.402088
  H      2.273469    1.537180    0.067073
  H     -0.126001    1.669065    1.522989
  H      0.011313    2.477196   -1.218996
  H      1.183364    1.387838   -2.022462
  H     -3.653967    0.345761   -1.485110
  H     -2.121278    0.217052    2.215293
  H      3.801978   -0.063961    0.314619
  H      3.279451   -1.547821    1.141498
  H      3.944031   -1.627009   -0.501432
  H     -1.485463    0.672853   -1.306935

 Total Charge           Charge          ....    1
 Multiplicity           Mult            ....    1
 Number of Electrons    NEL             ....   96
 Basis Dimension        Dim             ....  210

ORBITAL ENERGIES
----------------

  NO   OCC          E(Eh)            E(eV)
   0   2.0000     -19.764704      -537.8249
   1   2.0000     -19.704970      -536.1995
   2   2.0000     -19.676989      -535.4381
   3   2.0000     -19.641713      -534.4782
   4   2.0000     -19.616363      -533.7884
   5   2.0000     -10.688751      -290.8557
   6   2.0000     -10.683824      -290.7216
   7   2.0000     -10.670979      -290.3721
   8   2.0000     -10.662065      -290.1296
   9   2.0000     -10.655168      -289.9419
  10   2.0000     -10.643498      -289.6243
  11   2.0000     -10.598252      -288.3931
  12   2.0000      -1.408868       -38.3373
  13   2.0000      -1.339160       -36.4404
  14   2.0000      -1.317746       -35.8577
  15   2.0000      -1.297479       -35.3062
  16   2.0000      -1.269255       -34.5382
  17   2.0000      -1.066771       -29.0283
  18   2.0000      -1.031598       -28.0712
  19   2.0000      -0.990657       -26.9572
  20   2.0000      -0.911813       -24.8117
  21   2.0000      -0.885243       -24.0887
  22   2.0000      -0.879928       -23.9441
  23   2.0000      -0.835547       -22.7364
  24   2.0000      -0.809115       -22.0172
  25   2.0000      -0.804091       -21.8804
  26   2.0000      -0.750844       -20.4315
  27   2.0000      -0.738113       -20.0851
  28   2.0000      -0.733580       -19.9617
  29   2.0000      -0.717431       -19.5223
  30   2.0000      -0.697359       -18.9761
  31   2.0000      -0.687966       -18.7205
  32   2.0000      -0.672278       -18.2936
  33   2.0000      -0.669906       -18.2291
  34   2.0000      -0.645204       -17.5569
  35   2.0000      -0.638101       -17.3636
  36   2.0000      -0.623695       -16.9716
  37   2.0000      -0.613607       -16.6971
  38   2.0000      -0.598910       -16.2972
  39   2.0000      -0.588736       -16.0203
  40   2.0000      -0.563368       -15.3300
  41   2.0000      -0.553375       -15.0581
  42   2.0000      -0.535323       -14.5669
  43   2.0000      -0.534869       -14.5545
  44   2.0000      -0.516960       -14.0672
  45   2.0000      -0.508493       -13.8368
  46   2.0000      -0.477002       -12.9799
  47   2.0000      -0.443137       -12.0584
  48   0.0000      -0.076972        -2.0945
  49   0.0000      -0.051874        -1.4116
  50   0.0000      -0.035497        -0.9659
  51   0.0000      -0.013634        -0.3710
  52   0.0000      -0.004971        -0.1353

MULLIKEN ATOMIC CHARGES
-----------------------
   0 C :   -0.192752
   1 C :   -0.028296
   2 C :   -0.003784
   3 C :   -0.024735
   4 C :   -0.018092
   5 O :   -0.612407
   6 C :   -0.209515
   7 O :   -0.671226
   8 O :   -0.468396
   9 O :   -0.646759
  10 O :   -0.582552
  11 C :   -0.402456
  12 H :    0.247096
  13 H :    0.263207
  14 H :    0.273529
  15 H :    0.318370
  16 H :    0.272852
  17 H :    0.284902
  18 H :    0.446380
  19 H :    0.298067
  20 H :    0.292620
  21 H :    0.483285
  22 H :    0.462610
  23 H :    0.211912
  24 H :    0.216057
  25 H :    0.260444
  26 H :    0.529641
Sum of atomic charges:    1.0000000

LOEWDIN ATOMIC CHARGES
----------------------
   0 C :   -0.094642
   1 C :   -0.046907
   2 C :    0.010830
   3 C :   -0.028235
   4 C :   -0.045090
   5 O :   -0.365781
   6 C :   -0.063022
   7 O :   -0.378870
   8 O :   -0.234678
   9 O :   -0.372047
  10 O :   -0.160704
  11 C :   -0.185700
  12 H :    0.134974
  13 H :    0.140976
  14 H :    0.147870
  15 H :    0.170925
  16 H :    0.142098
  17 H :    0.152701
  18 H :    0.310427
  19 H :    0.163697
  20 H :    0.160092
  21 H :    0.351391
  22 H :    0.341285
  23 H :    0.113769
  24 H :    0.118346
  25 H :    0.144800
  26 H :    0.371492

  Mayer bond orders larger than 0.100000
B(  0-C ,  1-C ) :   0.9482 B(  0-C ,  7-O ) :   0.9054 B(  0-C , 12-H ) :   0.8862
B(  0-C , 13-H ) :   0.8930 B(  1-C ,  2-C ) :   0.9357 B(  1-C ,  9-O ) :   0.9804
B(  1-C , 14-H ) :   0.8699 B(  2-C ,  3-C ) :   0.9351 B(  2-C , 10-O ) :   0.7388
B(  2-C , 15-H ) :   0.8695 B(  3-C ,  4-C ) :   0.8964 B(  3-C ,  8-O ) :   0.9602
B(  3-C , 16-H ) :   0.8767 B(  4-C ,  5-O ) :   1.0914 B(  4-C ,  6-C ) :   0.9044
B(  4-C , 17-H ) :   0.8820 B(  5-O , 18-H ) :   0.7141 B(  6-C , 10-O ) :   0.7439
B(  6-C , 19-H ) :   0.8936 B(  6-C , 20-H ) :   0.8839 B(  7-O , 21-H ) :   0.7385
B(  7-O , 26-H ) :   0.2097 B(  8-O , 11-C ) :   0.9289 B(  9-O , 22-H ) :   0.7535
B( 10-O , 26-H ) :   0.5154 B( 11-C , 23-H ) :   0.9047 B( 11-C , 24-H ) :   0.9095
B( 11-C , 25-H ) :   0.9160

Dispersion correction           -0.015595357
FINAL SINGLE POINT ENERGY      -650.196305085934

DIPOLE MOMENT
-------------
                                X             Y             Z
Electronic contribution:     -3.44299       2.34735      -0.79104
Nuclear contribution   :      1.32547      -3.25729       0.25218
                        -----------------------------------------
Total Dipole Moment    :     -2.11753      -0.90994      -0.53886
                        -----------------------------------------
Magnitude (a.u.)       :      2.36692
Magnitude (Debye)      :      6.01622

Rotational constants in cm-1:     0.049214     0.021845     0.020556
Rotational constants in MHz :  1475.390701   654.884999   616.242300

                             ****ORCA TERMINATED NORMALLY****
TOTAL RUN TIME: 0 days 0 hours 2 minutes 39 seconds 617 msec
