                         Program Version 5.0.3 -  RELEASE  -
|  1> ! PBEh-3c def2/J TightSCF DefGrid3
|  2>
|  3> %maxcore 60000
|  4>
|  5> %pal
|  6> nprocs 4
|  7> end
|  8>
|  9> *xyzfile 0 1 sih4.xyz
| 10>
| 11>                          ****END OF INPUT****

CARTESIAN COORDINATES (ANGSTROEM)
---------------------------------
  Si     0.000000    0.000000    0.000000
  H      0.854920   -0.854920    0.854920
  H     -0.854920    0.854920    0.854920
  H     -0.854920   -0.854920   -0.854920
  H      0.854920    0.854920   -0.854920

 Total Charge           Charge          ....    0
 Multiplicity           Mult            ....    1
 Number of Electrons    NEL             ....   18
 Basis Dimension        Dim             ....   26

ORBITAL ENERGIES
----------------

  NO   OCC          E(Eh)            E(eV)
   0   2.0000     -66.727210     -1815.7397
   1   2.0000      -5.512398      -150.0000
   2   2.0000      -3.802851      -103.4808
   3   2.0000      -3.802851      -103.4808
   4   2.0000      -3.802851      -103.4808
   5   2.0000      -0.612274       -16.6608
   6   2.0000      -0.401433       -10.9235
   7   2.0000      -0.401433       -10.9235
   8   2.0000      -0.401433       -10.9235
   9   0.0000       0.084042         2.2869
  10   0.0000       0.084042         2.2869
  11   0.0000       0.084042         2.2869
  12   0.0000       0.155384         4.2282
  13   0.0000       0.244357         6.6493

MULLIKEN ATOMIC CHARGES
-----------------------
   0 Si:    0.080417
   1 H :   -0.020104
   2 H :   -0.020104
   3 H :   -0.020104
   4 H :   -0.020104
Sum of atomic charges:   -0.0000000

LOEWDIN ATOMIC CHARGES
----------------------
   0 Si:    0.091932
   1 H :   -0.022983
   2 H :   -0.022983
   3 H :   -0.022983
   4 H :   -0.022983

  Mayer bond orders larger than 0.100000
B(  0-Si,  1-H ) :   0.9679 B(  0-Si,  2-H ) :   0.9679 B(  0-Si,  3-H ) :   0.9679
B(  0-Si,  4-H ) :   0.9679

Dispersion correction           -0.000930859
FINAL SINGLE POINT ENERGY      -291.510244631234

DIPOLE MOMENT
-------------
                                X             Y             Z
Electronic contribution:     -0.00000       0.00000      -0.00000
Nuclear contribution   :      0.00000       0.00000       0.00000
                        -----------------------------------------
Total Dipole Moment    :     -0.00000       0.00000      -0.00000
                        -----------------------------------------
Magnitude (a.u.)       :      0.00000
Magnitude (Debye)      :      0.00000

Rotational constants in cm-1:     2.860192     2.860192     2.860192
Rotational constants in MHz : 85746.386242 85746.386242 85746.386242

                             ****ORCA TERMINATED NORMALLY****
TOTAL RUN TIME: 0 days 0 hours 0 minutes 45 seconds 643 msec
