                         Program Version 5.0.3 -  RELEASE  -
|  1> ! PBEh-3c def2/J TightSCF DefGrid3
|  2>
|  3> %maxcore 60000
|  4>
|  5> %pal
|  6> nprocs 4
|  7> end
|  8>
|  9> *xyzfile 0 1 32A.xyz
| 10>
| 11>                          ****END OF INPUT****

CARTESIAN COORDINATES (ANGSTROEM)
---------------------------------
  N      0.000442   -1.305082   -0.044115
  H     -0.001421   -2.314804    0.000927
  C     -1.258064   -0.692236   -0.118712
  O     -2.273001   -1.364992   -0.177228
  C     -1.192463    0.758961   -0.120634
  H     -2.108454    1.318242   -0.201228
  C      0.002815    1.374336   -0.019930
  H      0.104006    2.449339   -0.010706
  N      1.171822    0.670500    0.081043
  H      2.052550    1.140189    0.207495
  C      1.231242   -0.710896    0.122041
  O      2.270527   -1.323556    0.281047

 Total Charge           Charge          ....    0
 Multiplicity           Mult            ....    1
 Number of Electrons    NEL             ....   58
 Basis Dimension        Dim             ....  128

ORBITAL ENERGIES
----------------

  NO   OCC          E(Eh)            E(eV)
   0   2.0000     -19.483461      -530.1719
   1   2.0000     -19.477452      -530.0084
   2   2.0000     -14.718198      -400.5025
   3   2.0000     -14.698102      -399.9557
   4   2.0000     -10.609927      -288.7108
   5   2.0000     -10.574626      -287.7502
   6   2.0000     -10.538793      -286.7751
   7   2.0000     -10.467684      -284.8402
   8   2.0000      -1.197534       -32.5865
   9   2.0000      -1.158849       -31.5339
  10   2.0000      -1.094344       -29.7786
  11   2.0000      -1.036249       -28.1978
  12   2.0000      -0.900247       -24.4970
  13   2.0000      -0.780951       -21.2508
  14   2.0000      -0.751409       -20.4469
  15   2.0000      -0.678839       -18.4721
  16   2.0000      -0.637450       -17.3459
  17   2.0000      -0.594788       -16.1850
  18   2.0000      -0.553815       -15.0701
  19   2.0000      -0.545093       -14.8327
  20   2.0000      -0.522508       -14.2182
  21   2.0000      -0.491448       -13.3730
  22   2.0000      -0.486470       -13.2375
  23   2.0000      -0.469264       -12.7693
  24   2.0000      -0.431198       -11.7335
  25   2.0000      -0.361953        -9.8492
  26   2.0000      -0.341937        -9.3046
  27   2.0000      -0.329387        -8.9631
  28   2.0000      -0.300743        -8.1836
  29   0.0000      -0.022861        -0.6221
  30   0.0000       0.038645         1.0516
  31   0.0000       0.096162         2.6167
  32   0.0000       0.152921         4.1612
  33   0.0000       0.158944         4.3251

MULLIKEN ATOMIC CHARGES
-----------------------
   0 N :   -0.720829
   1 H :    0.399249
   2 C :    0.565746
   3 O :   -0.391063
   4 C :   -0.452787
   5 H :    0.266785
   6 C :    0.084432
   7 H :    0.272786
   8 N :   -0.677762
   9 H :    0.393277
  10 C :    0.676139
  11 O :   -0.415975
Sum of atomic charges:   -0.0000000

LOEWDIN ATOMIC CHARGES
----------------------
   0 N :   -0.203550
   1 H :    0.286710
   2 C :    0.123664
   3 O :   -0.241332
   4 C :   -0.240581
   5 H :    0.163875
   6 C :   -0.013592
   7 H :    0.150014
   8 N :   -0.188850
   9 H :    0.282143
  10 C :    0.145612
  11 O :   -0.264114

  Mayer bond orders larger than 0.100000
B(  0-N ,  1-H ) :   0.7983 B(  0-N ,  2-C ) :   0.9793 B(  0-N , 10-C ) :   1.0669
B(  2-C ,  3-O ) :   2.0402 B(  2-C ,  4-C ) :   1.0567 B(  4-C ,  5-H ) :   0.9064
B(  4-C ,  6-C ) :   1.6439 B(  6-C ,  7-H ) :   0.8991 B(  6-C ,  8-N ) :   1.0766
B(  8-N ,  9-H ) :   0.8079 B(  8-N , 10-C ) :   1.0255 B( 10-C , 11-O ) :   2.0450

Dispersion correction           -0.006240423
FINAL SINGLE POINT ENERGY      -413.938179795849

DIPOLE MOMENT
-------------
                                X             Y             Z
Electronic contribution:      0.53449      -2.07918       0.04935
Nuclear contribution   :     -0.01125       3.76065      -0.01937
                        -----------------------------------------
Total Dipole Moment    :      0.52324       1.68147       0.02998
                        -----------------------------------------
Magnitude (a.u.)       :      1.76125
Magnitude (Debye)      :      4.47675

Rotational constants in cm-1:     0.130288     0.067465     0.044472
Rotational constants in MHz :  3905.939056  2022.539044  1333.251959

                             ****ORCA TERMINATED NORMALLY****
TOTAL RUN TIME: 0 days 0 hours 1 minutes 45 seconds 661 msec
