                         Program Version 5.0.3 -  RELEASE  -
|  1> ! PBEh-3c def2/J TightSCF DefGrid3
|  2>
|  3> %maxcore 60000
|  4>
|  5> %pal
|  6> nprocs 4
|  7> end
|  8>
|  9> *xyzfile 0 1 ASN_xaf.xyz
| 10>
| 11>                          ****END OF INPUT****

CARTESIAN COORDINATES (ANGSTROEM)
---------------------------------
  N     -0.601163   -1.007314    0.068261
  C      0.104098   -0.046289    0.901971
  C      0.189418    1.358551    0.276880
  O      1.268617    1.934482    0.112250
  C      1.501011   -0.585250    1.207615
  C      2.201371   -1.033772   -0.061255
  O      1.940345   -2.124719   -0.569984
  N      3.107378   -0.167749   -0.570741
  H     -0.028411   -1.720659   -0.368689
  H     -0.459608    0.057548    1.832874
  H      1.406067   -1.462768    1.843390
  H      2.066975    0.182571    1.726570
  H      2.967260    0.804429   -0.333863
  H      3.454540   -0.385915   -1.490367
  N     -1.007415    1.886166   -0.023439
  H     -1.824386    1.326845    0.211041
  C     -1.147466    3.199950   -0.612448
  H     -0.152820    3.582559   -0.817282
  H     -1.712037    3.144436   -1.540880
  H     -1.655986    3.879312    0.069436
  C     -1.947040   -1.103848    0.038463
  O     -2.684227   -0.283154    0.594048
  C     -2.501237   -2.279510   -0.722215
  H     -1.731813   -2.867717   -1.214968
  H     -3.046816   -2.911812   -0.025040
  H     -3.211003   -1.913612   -1.459674

 Total Charge           Charge          ....    0
 Multiplicity           Mult            ....    1
 Number of Electrons    NEL             ....  100
 Basis Dimension        Dim             ....  221

ORBITAL ENERGIES
----------------

  NO   OCC          E(Eh)            E(eV)
   0   2.0000     -19.472373      -529.8702
   1   2.0000     -19.469607      -529.7949
   2   2.0000     -19.468783      -529.7725
   3   2.0000     -14.673219      -399.2786
   4   2.0000     -14.658374      -398.8746
   5   2.0000     -14.651204      -398.6795
   6   2.0000     -10.562857      -287.4299
   7   2.0000     -10.557989      -287.2975
   8   2.0000     -10.553499      -287.1753
   9   2.0000     -10.507954      -285.9360
  10   2.0000     -10.465621      -284.7840
  11   2.0000     -10.459405      -284.6149
  12   2.0000     -10.448656      -284.3224
  13   2.0000      -1.160392       -31.5759
  14   2.0000      -1.150189       -31.2982
  15   2.0000      -1.146628       -31.2013
  16   2.0000      -1.041072       -28.3290
  17   2.0000      -1.022108       -27.8130
  18   2.0000      -1.006416       -27.3860
  19   2.0000      -0.893497       -24.3133
  20   2.0000      -0.832422       -22.6514
  21   2.0000      -0.809039       -22.0151
  22   2.0000      -0.746211       -20.3054
  23   2.0000      -0.680020       -18.5043
  24   2.0000      -0.661173       -17.9914
  25   2.0000      -0.648321       -17.6417
  26   2.0000      -0.614432       -16.7196
  27   2.0000      -0.600060       -16.3285
  28   2.0000      -0.568806       -15.4780
  29   2.0000      -0.564803       -15.3691
  30   2.0000      -0.537546       -14.6274
  31   2.0000      -0.529686       -14.4135
  32   2.0000      -0.513017       -13.9599
  33   2.0000      -0.510552       -13.8928
  34   2.0000      -0.499351       -13.5880
  35   2.0000      -0.483564       -13.1584
  36   2.0000      -0.476665       -12.9707
  37   2.0000      -0.470529       -12.8038
  38   2.0000      -0.464617       -12.6429
  39   2.0000      -0.449346       -12.2273
  40   2.0000      -0.441514       -12.0142
  41   2.0000      -0.429985       -11.7005
  42   2.0000      -0.426622       -11.6090
  43   2.0000      -0.420290       -11.4367
  44   2.0000      -0.347968        -9.4687
  45   2.0000      -0.331168        -9.0115
  46   2.0000      -0.325305        -8.8520
  47   2.0000      -0.315441        -8.5836
  48   2.0000      -0.305351        -8.3090
  49   2.0000      -0.300951        -8.1893
  50   0.0000       0.030388         0.8269
  51   0.0000       0.051550         1.4027
  52   0.0000       0.058417         1.5896
  53   0.0000       0.138727         3.7750
  54   0.0000       0.142318         3.8727

MULLIKEN ATOMIC CHARGES
-----------------------
   0 N :   -0.639273
   1 C :   -0.231557
   2 C :    0.585088
   3 O :   -0.476392
   4 C :   -0.562420
   5 C :    0.498209
   6 O :   -0.450490
   7 N :   -0.779505
   8 H :    0.407350
   9 H :    0.286837
  10 H :    0.275644
  11 H :    0.271036
  12 H :    0.405366
  13 H :    0.363359
  14 N :   -0.651626
  15 H :    0.418328
  16 C :   -0.494578
  17 H :    0.256607
  18 H :    0.223426
  19 H :    0.225111
  20 C :    0.538459
  21 O :   -0.477820
  22 C :   -0.744388
  23 H :    0.234344
  24 H :    0.260536
  25 H :    0.258350
Sum of atomic charges:   -0.0000000

LOEWDIN ATOMIC CHARGES
----------------------
   0 N :   -0.223111
   1 C :   -0.085192
   2 C :    0.109810
   3 O :   -0.311388
   4 C :   -0.260318
   5 C :    0.108059
   6 O :   -0.302625
   7 N :   -0.357106
   8 H :    0.274596
   9 H :    0.154544
  10 H :    0.156513
  11 H :    0.155022
  12 H :    0.268457
  13 H :    0.255743
  14 N :   -0.235162
  15 H :    0.272696
  16 C :   -0.254971
  17 H :    0.148982
  18 H :    0.124859
  19 H :    0.125011
  20 C :    0.114479
  21 O :   -0.311610
  22 C :   -0.382108
  23 H :    0.137770
  24 H :    0.159780
  25 H :    0.157271

  Mayer bond orders larger than 0.100000
B(  0-N ,  1-C ) :   0.9272 B(  0-N ,  8-H ) :   0.7365 B(  0-N , 20-C ) :   1.2001
B(  1-C ,  2-C ) :   0.8730 B(  1-C ,  4-C ) :   0.9707 B(  1-C ,  9-H ) :   0.8772
B(  2-C ,  3-O ) :   1.8751 B(  2-C , 14-N ) :   1.2373 B(  3-O , 14-N ) :   0.1087
B(  4-C ,  5-C ) :   0.9122 B(  4-C , 10-H ) :   0.9005 B(  4-C , 11-H ) :   0.8914
B(  5-C ,  6-O ) :   1.9157 B(  5-C ,  7-N ) :   1.2271 B(  7-N , 12-H ) :   0.7631
B(  7-N , 13-H ) :   0.8308 B( 14-N , 15-H ) :   0.7064 B( 14-N , 16-C ) :   0.9547
B( 15-H , 21-O ) :   0.1078 B( 16-C , 17-H ) :   0.9040 B( 16-C , 18-H ) :   0.9211
B( 16-C , 19-H ) :   0.9195 B( 20-C , 21-O ) :   1.8436 B( 20-C , 22-C ) :   0.9357
B( 22-C , 23-H ) :   0.9157 B( 22-C , 24-H ) :   0.9064 B( 22-C , 25-H ) :   0.9088

Dispersion correction           -0.015659889
FINAL SINGLE POINT ENERGY      -663.148420971783

DIPOLE MOMENT
-------------
                                X             Y             Z
Electronic contribution:      3.89243      -1.53533       1.56680
Nuclear contribution   :     -4.07603       1.72210      -1.83769
                        -----------------------------------------
Total Dipole Moment    :     -0.18360       0.18677      -0.27089
                        -----------------------------------------
Magnitude (a.u.)       :      0.37679
Magnitude (Debye)      :      0.95772

Rotational constants in cm-1:     0.029372     0.023626     0.014777
Rotational constants in MHz :   880.555032   708.285392   442.999525

                             ****ORCA TERMINATED NORMALLY****
TOTAL RUN TIME: 0 days 0 hours 3 minutes 56 seconds 540 msec
