                         Program Version 5.0.3 -  RELEASE  -
|  1> ! PBEh-3c def2/J TightSCF DefGrid3
|  2>
|  3> %maxcore 60000
|  4>
|  5> %pal
|  6> nprocs 4
|  7> end
|  8>
|  9> *xyzfile 0 1 24.xyz
| 10>
| 11>                          ****END OF INPUT****

CARTESIAN COORDINATES (ANGSTROEM)
---------------------------------
  C      0.193513    1.121173   -1.744203
  H      0.838709    1.986577   -1.677007
  C      0.739103   -0.159074   -1.680511
  H      1.805822   -0.286922   -1.558001
  C     -0.092247   -1.274349   -1.762094
  H      0.331312   -2.268255   -1.709994
  C     -1.468710   -1.109896   -1.905058
  H     -2.113588   -1.976096   -1.968458
  C     -2.014658    0.171228   -1.966290
  H     -3.082915    0.299399   -2.078447
  C     -1.182960    1.286820   -1.888146
  H     -1.606033    2.281178   -1.937630
  C      1.468710    1.109896    1.905058
  H      2.113588    1.976096    1.968458
  C      2.014658   -0.171228    1.966290
  H      3.082915   -0.299399    2.078447
  C      1.182960   -1.286820    1.888146
  H      1.606033   -2.281178    1.937630
  C     -0.193513   -1.121173    1.744203
  H     -0.838709   -1.986577    1.677007
  C     -0.739103    0.159074    1.680511
  H     -1.805822    0.286922    1.558001
  C      0.092247    1.274349    1.762094
  H     -0.331312    2.268255    1.709994

 Total Charge           Charge          ....    0
 Multiplicity           Mult            ....    1
 Number of Electrons    NEL             ....   84
 Basis Dimension        Dim             ....  204

ORBITAL ENERGIES
----------------

  NO   OCC          E(Eh)            E(eV)
   0   2.0000     -10.443583      -284.1843
   1   2.0000     -10.443576      -284.1842
   2   2.0000     -10.442955      -284.1673
   3   2.0000     -10.442946      -284.1670
   4   2.0000     -10.442708      -284.1605
   5   2.0000     -10.442683      -284.1598
   6   2.0000     -10.442191      -284.1465
   7   2.0000     -10.442178      -284.1461
   8   2.0000     -10.441946      -284.1398
   9   2.0000     -10.441924      -284.1392
  10   2.0000     -10.440815      -284.1090
  11   2.0000     -10.440804      -284.1087
  12   2.0000      -0.947445       -25.7813
  13   2.0000      -0.944624       -25.7045
  14   2.0000      -0.830828       -22.6080
  15   2.0000      -0.829567       -22.5737
  16   2.0000      -0.829229       -22.5645
  17   2.0000      -0.828429       -22.5427
  18   2.0000      -0.673520       -18.3274
  19   2.0000      -0.673332       -18.3223
  20   2.0000      -0.673230       -18.3195
  21   2.0000      -0.672768       -18.3069
  22   2.0000      -0.586888       -15.9700
  23   2.0000      -0.585901       -15.9432
  24   2.0000      -0.520491       -14.1633
  25   2.0000      -0.520370       -14.1600
  26   2.0000      -0.502686       -13.6788
  27   2.0000      -0.502453       -13.6725
  28   2.0000      -0.476919       -12.9776
  29   2.0000      -0.476161       -12.9570
  30   2.0000      -0.475890       -12.9496
  31   2.0000      -0.475538       -12.9400
  32   2.0000      -0.426803       -11.6139
  33   2.0000      -0.402881       -10.9630
  34   2.0000      -0.392756       -10.6874
  35   2.0000      -0.392684       -10.6855
  36   2.0000      -0.392574       -10.6825
  37   2.0000      -0.392534       -10.6814
  38   2.0000      -0.296551        -8.0696
  39   2.0000      -0.286459        -7.7949
  40   2.0000      -0.284698        -7.7470
  41   2.0000      -0.276530        -7.5248
  42   0.0000       0.021087         0.5738
  43   0.0000       0.024389         0.6637
  44   0.0000       0.025643         0.6978
  45   0.0000       0.028796         0.7836
  46   0.0000       0.142666         3.8821

MULLIKEN ATOMIC CHARGES
-----------------------
   0 C :   -0.210691
   1 H :    0.216203
   2 C :   -0.200747
   3 H :    0.218357
   4 C :   -0.213851
   5 H :    0.215689
   6 C :   -0.222529
   7 H :    0.214722
   8 C :   -0.225716
   9 H :    0.215430
  10 C :   -0.221469
  11 H :    0.214602
  12 C :   -0.222529
  13 H :    0.214722
  14 C :   -0.225716
  15 H :    0.215429
  16 C :   -0.221469
  17 H :    0.214601
  18 C :   -0.210690
  19 H :    0.216203
  20 C :   -0.200748
  21 H :    0.218357
  22 C :   -0.213851
  23 H :    0.215689
Sum of atomic charges:   -0.0000000

LOEWDIN ATOMIC CHARGES
----------------------
   0 C :   -0.128849
   1 H :    0.134291
   2 C :   -0.125041
   3 H :    0.136500
   4 C :   -0.130761
   5 H :    0.133785
   6 C :   -0.140023
   7 H :    0.133084
   8 C :   -0.140261
   9 H :    0.133316
  10 C :   -0.139095
  11 H :    0.133053
  12 C :   -0.140023
  13 H :    0.133084
  14 C :   -0.140261
  15 H :    0.133316
  16 C :   -0.139095
  17 H :    0.133053
  18 C :   -0.128849
  19 H :    0.134291
  20 C :   -0.125041
  21 H :    0.136500
  22 C :   -0.130761
  23 H :    0.133785

  Mayer bond orders larger than 0.100000
B(  0-C ,  1-H ) :   0.9203 B(  0-C ,  2-C ) :   1.4312 B(  0-C , 10-C ) :   1.4247
B(  2-C ,  3-H ) :   0.9189 B(  2-C ,  4-C ) :   1.4279 B(  4-C ,  5-H ) :   0.9207
B(  4-C ,  6-C ) :   1.4267 B(  6-C ,  7-H ) :   0.9214 B(  6-C ,  8-C ) :   1.4257
B(  8-C ,  9-H ) :   0.9212 B(  8-C , 10-C ) :   1.4276 B( 10-C , 11-H ) :   0.9215
B( 12-C , 13-H ) :   0.9214 B( 12-C , 14-C ) :   1.4257 B( 12-C , 22-C ) :   1.4267
B( 14-C , 15-H ) :   0.9212 B( 14-C , 16-C ) :   1.4276 B( 16-C , 17-H ) :   0.9215
B( 16-C , 18-C ) :   1.4247 B( 18-C , 19-H ) :   0.9203 B( 18-C , 20-C ) :   1.4312
B( 20-C , 21-H ) :   0.9189 B( 20-C , 22-C ) :   1.4279 B( 22-C , 23-H ) :   0.9207

Dispersion correction           -0.015723548
FINAL SINGLE POINT ENERGY      -463.455642269224

DIPOLE MOMENT
-------------
                                X             Y             Z
Electronic contribution:      0.00000       0.00000      -0.00000
Nuclear contribution   :      0.00000      -0.00000      -0.00000
                        -----------------------------------------
Total Dipole Moment    :      0.00000       0.00000      -0.00000
                        -----------------------------------------
Magnitude (a.u.)       :      0.00000
Magnitude (Debye)      :      0.00000

Rotational constants in cm-1:     0.053991     0.022167     0.021016
Rotational constants in MHz :  1618.606402   664.535793   630.053226

                             ****ORCA TERMINATED NORMALLY****
TOTAL RUN TIME: 0 days 0 hours 2 minutes 26 seconds 225 msec
