                         Program Version 5.0.3 -  RELEASE  -
|  1> ! PBEh-3c def2/J TightSCF DefGrid3
|  2>
|  3> %maxcore 60000
|  4>
|  5> %pal
|  6> nprocs 4
|  7> end
|  8>
|  9> *xyzfile 0 1 R60.xyz
| 10>
| 11>                          ****END OF INPUT****

CARTESIAN COORDINATES (ANGSTROEM)
---------------------------------
  C     -0.669902    1.274703    0.002052
  C      0.876480    1.248952   -0.002162
  C      0.004594   -0.978217   -0.001194
  C     -1.071174   -0.180033   -0.000116
  C      1.250808   -0.226950   -0.000429
  C     -2.502487   -0.589770    0.000004
  C      2.486734   -0.729165    0.001472
  H     -1.080660    1.793489   -0.868934
  H     -1.075687    1.788739    0.878235
  H      1.290724    1.753343    0.870614
  H      1.284867    1.748699   -0.880421
  H     -3.022770   -0.189446   -0.875043
  H     -2.614128   -1.673099   -0.001516
  H      3.359600   -0.090300    0.002292
  H      2.658608   -1.797149    0.002287
  H     -3.021876   -0.192009    0.876755
  H     -0.029000   -2.059398   -0.002038

 Total Charge           Charge          ....    0
 Multiplicity           Mult            ....    1
 Number of Electrons    NEL             ....   52
 Basis Dimension        Dim             ....  125

ORBITAL ENERGIES
----------------

  NO   OCC          E(Eh)            E(eV)
   0   2.0000     -10.454186      -284.4729
   1   2.0000     -10.446515      -284.2641
   2   2.0000     -10.439738      -284.0797
   3   2.0000     -10.436198      -283.9834
   4   2.0000     -10.435954      -283.9767
   5   2.0000     -10.432369      -283.8792
   6   2.0000     -10.417180      -283.4659
   7   2.0000      -0.952311       -25.9137
   8   2.0000      -0.854486       -23.2517
   9   2.0000      -0.812442       -22.1077
  10   2.0000      -0.769687       -20.9442
  11   2.0000      -0.708758       -19.2863
  12   2.0000      -0.608962       -16.5707
  13   2.0000      -0.589058       -16.0291
  14   2.0000      -0.529286       -14.4026
  15   2.0000      -0.523095       -14.2342
  16   2.0000      -0.488610       -13.2958
  17   2.0000      -0.469204       -12.7677
  18   2.0000      -0.469109       -12.7651
  19   2.0000      -0.427580       -11.6351
  20   2.0000      -0.413829       -11.2609
  21   2.0000      -0.413413       -11.2495
  22   2.0000      -0.389914       -10.6101
  23   2.0000      -0.377599       -10.2750
  24   2.0000      -0.345542        -9.4027
  25   2.0000      -0.245864        -6.6903
  26   0.0000       0.015117         0.4114
  27   0.0000       0.107091         2.9141
  28   0.0000       0.144166         3.9230
  29   0.0000       0.161506         4.3948
  30   0.0000       0.178138         4.8474

MULLIKEN ATOMIC CHARGES
-----------------------
   0 C :   -0.472698
   1 C :   -0.494662
   2 C :   -0.243330
   3 C :    0.091011
   4 C :    0.167055
   5 C :   -0.704716
   6 C :   -0.587025
   7 H :    0.227322
   8 H :    0.227463
   9 H :    0.239577
  10 H :    0.239718
  11 H :    0.227189
  12 H :    0.232285
  13 H :    0.208564
  14 H :    0.208935
  15 H :    0.227185
  16 H :    0.206126
Sum of atomic charges:    0.0000000

LOEWDIN ATOMIC CHARGES
----------------------
   0 C :   -0.228098
   1 C :   -0.226067
   2 C :   -0.150727
   3 C :   -0.044112
   4 C :   -0.046385
   5 C :   -0.350257
   6 C :   -0.303598
   7 H :    0.131111
   8 H :    0.131203
   9 H :    0.139564
  10 H :    0.139673
  11 H :    0.138115
  12 H :    0.137535
  13 H :    0.129629
  14 H :    0.130569
  15 H :    0.138124
  16 H :    0.133720

  Mayer bond orders larger than 0.100000
B(  0-C ,  1-C ) :   0.9653 B(  0-C ,  3-C ) :   0.9912 B(  0-C ,  7-H ) :   0.9138
B(  0-C ,  8-H ) :   0.9136 B(  1-C ,  4-C ) :   0.9670 B(  1-C ,  9-H ) :   0.9176
B(  1-C , 10-H ) :   0.9174 B(  2-C ,  3-C ) :   1.7659 B(  2-C ,  4-C ) :   1.0953
B(  2-C , 16-H ) :   0.9293 B(  3-C ,  5-C ) :   0.9735 B(  3-C ,  6-C ) :   0.1003
B(  4-C ,  6-C ) :   1.7927 B(  5-C , 11-H ) :   0.9152 B(  5-C , 12-H ) :   0.9310
B(  5-C , 15-H ) :   0.9152 B(  6-C , 13-H ) :   0.9357 B(  6-C , 14-H ) :   0.9337

Dispersion correction           -0.008415299
FINAL SINGLE POINT ENERGY      -272.134407703735

DIPOLE MOMENT
-------------
                                X             Y             Z
Electronic contribution:      1.88896      -0.91470      -0.00231
Nuclear contribution   :     -2.33404       1.12316       0.00232
                        -----------------------------------------
Total Dipole Moment    :     -0.44508       0.20845       0.00001
                        -----------------------------------------
Magnitude (a.u.)       :      0.49148
Magnitude (Debye)      :      1.24923

Rotational constants in cm-1:     0.189389     0.067226     0.051005
Rotational constants in MHz :  5677.753271  2015.380614  1529.088747

                             ****ORCA TERMINATED NORMALLY****
TOTAL RUN TIME: 0 days 0 hours 1 minutes 2 seconds 118 msec
