                         Program Version 5.0.3 -  RELEASE  -
|  1> ! PBEh-3c def2/J TightSCF DefGrid3
|  2>
|  3> %maxcore 60000
|  4>
|  5> %pal
|  6> nprocs 4
|  7> end
|  8>
|  9> *xyzfile 0 1 NCl3_TS.xyz
| 10>
| 11>                          ****END OF INPUT****

CARTESIAN COORDINATES (ANGSTROEM)
---------------------------------
  N      0.167021   -0.048692    0.340386
  Cl    -0.704521    0.765193   -0.855082
  Cl     1.494099    0.696051    1.074092
  Cl    -0.276599   -1.613552    0.793604

 Total Charge           Charge          ....    0
 Multiplicity           Mult            ....    1
 Number of Electrons    NEL             ....   58
 Basis Dimension        Dim             ....   69

ORBITAL ENERGIES
----------------

  NO   OCC          E(Eh)            E(eV)
   0   2.0000    -102.356380     -2785.2587
   1   2.0000    -102.356275     -2785.2558
   2   2.0000    -102.356207     -2785.2540
   3   2.0000     -14.768480      -401.8708
   4   2.0000      -9.821154      -267.2472
   5   2.0000      -9.821052      -267.2444
   6   2.0000      -9.820999      -267.2430
   7   2.0000      -7.511654      -204.4025
   8   2.0000      -7.511549      -204.3996
   9   2.0000      -7.511501      -204.3983
  10   2.0000      -7.499378      -204.0685
  11   2.0000      -7.499274      -204.0656
  12   2.0000      -7.499228      -204.0644
  13   2.0000      -7.498357      -204.0407
  14   2.0000      -7.498255      -204.0379
  15   2.0000      -7.498213      -204.0368
  16   2.0000      -1.133630       -30.8476
  17   2.0000      -0.959775       -26.1168
  18   2.0000      -0.959482       -26.1088
  19   2.0000      -0.754951       -20.5433
  20   2.0000      -0.577710       -15.7203
  21   2.0000      -0.577550       -15.7159
  22   2.0000      -0.524231       -14.2650
  23   2.0000      -0.413636       -11.2556
  24   2.0000      -0.413474       -11.2512
  25   2.0000      -0.402385       -10.9495
  26   2.0000      -0.402260       -10.9461
  27   2.0000      -0.376255       -10.2384
  28   2.0000      -0.274167        -7.4605
  29   0.0000      -0.077744        -2.1155
  30   0.0000       0.055689         1.5154
  31   0.0000       0.056142         1.5277
  32   0.0000       0.379260        10.3202
  33   0.0000       0.499826        13.6010

MULLIKEN ATOMIC CHARGES
-----------------------
   0 N :   -0.551548
   1 Cl:    0.184135
   2 Cl:    0.183500
   3 Cl:    0.183914
Sum of atomic charges:    0.0000000

LOEWDIN ATOMIC CHARGES
----------------------
   0 N :   -0.534390
   1 Cl:    0.178422
   2 Cl:    0.177772
   3 Cl:    0.178196

  Mayer bond orders larger than 0.100000
B(  0-N ,  1-Cl) :   0.9175 B(  0-N ,  2-Cl) :   0.9171 B(  0-N ,  3-Cl) :   0.9174

Dispersion correction           -0.002006656
FINAL SINGLE POINT ENERGY     -1433.576710937649

DIPOLE MOMENT
-------------
                                X             Y             Z
Electronic contribution:      0.00374      -0.00239      -0.00481
Nuclear contribution   :     -0.00188       0.00098       0.00135
                        -----------------------------------------
Total Dipole Moment    :      0.00186      -0.00140      -0.00346
                        -----------------------------------------
Magnitude (a.u.)       :      0.00417
Magnitude (Debye)      :      0.01061

Rotational constants in cm-1:     0.111248     0.111044     0.055573
Rotational constants in MHz :  3335.139850  3329.024168  1666.043253

                             ****ORCA TERMINATED NORMALLY****
TOTAL RUN TIME: 0 days 0 hours 0 minutes 28 seconds 833 msec
