                         Program Version 5.0.3 -  RELEASE  -
|  1> ! PBEh-3c def2/J TightSCF DefGrid3
|  2>
|  3> %maxcore 60000
|  4>
|  5> %pal
|  6> nprocs 4
|  7> end
|  8>
|  9> *xyzfile 0 1 maleinNH.xyz
| 10>
| 11>                          ****END OF INPUT****

CARTESIAN COORDINATES (ANGSTROEM)
---------------------------------
  C      1.146700    0.000000    0.397173
  C      0.664239    0.000000   -1.018939
  C     -0.664239    0.000000   -1.018939
  C     -1.146700    0.000000    0.397173
  N      0.000000    0.000000    1.174287
  O      2.278534    0.000000    0.798093
  O     -2.278534    0.000000    0.798093
  H      1.349824    0.000000   -1.853744
  H     -1.349824    0.000000   -1.853744
  H      0.000000    0.000000    2.180548

 Total Charge           Charge          ....    0
 Multiplicity           Mult            ....    1
 Number of Electrons    NEL             ....   50
 Basis Dimension        Dim             ....  111

ORBITAL ENERGIES
----------------

  NO   OCC          E(Eh)            E(eV)
   0   2.0000     -19.508090      -530.8421
   1   2.0000     -19.508078      -530.8418
   2   2.0000     -14.694850      -399.8672
   3   2.0000     -10.587900      -288.1114
   4   2.0000     -10.587861      -288.1103
   5   2.0000     -10.495912      -285.6083
   6   2.0000     -10.494933      -285.5817
   7   2.0000      -1.202434       -32.7199
   8   2.0000      -1.183275       -32.1986
   9   2.0000      -1.078956       -29.3599
  10   2.0000      -0.926084       -25.2000
  11   2.0000      -0.774108       -21.0645
  12   2.0000      -0.709679       -19.3113
  13   2.0000      -0.690497       -18.7894
  14   2.0000      -0.584655       -15.9093
  15   2.0000      -0.550344       -14.9756
  16   2.0000      -0.547592       -14.9007
  17   2.0000      -0.536455       -14.5977
  18   2.0000      -0.521820       -14.1994
  19   2.0000      -0.500279       -13.6133
  20   2.0000      -0.468963       -12.7611
  21   2.0000      -0.370199       -10.0736
  22   2.0000      -0.363341        -9.8870
  23   2.0000      -0.353150        -9.6097
  24   2.0000      -0.337236        -9.1767
  25   0.0000      -0.078446        -2.1346
  26   0.0000       0.095174         2.5898
  27   0.0000       0.097884         2.6635
  28   0.0000       0.126943         3.4543
  29   0.0000       0.169031         4.5996

MULLIKEN ATOMIC CHARGES
-----------------------
   0 C :    0.538485
   1 C :   -0.299845
   2 C :   -0.299845
   3 C :    0.538485
   4 N :   -0.724407
   5 O :   -0.339907
   6 O :   -0.339907
   7 H :    0.267842
   8 H :    0.267842
   9 H :    0.391256
Sum of atomic charges:    0.0000000

LOEWDIN ATOMIC CHARGES
----------------------
   0 C :    0.125173
   1 C :   -0.131379
   2 C :   -0.131379
   3 C :    0.125173
   4 N :   -0.223845
   5 O :   -0.181602
   6 O :   -0.181602
   7 H :    0.159873
   8 H :    0.159873
   9 H :    0.279715

  Mayer bond orders larger than 0.100000
B(  0-C ,  1-C ) :   0.9668 B(  0-C ,  4-N ) :   1.0347 B(  0-C ,  5-O ) :   2.0953
B(  1-C ,  2-C ) :   1.7715 B(  1-C ,  7-H ) :   0.9114 B(  2-C ,  3-C ) :   0.9668
B(  2-C ,  8-H ) :   0.9114 B(  3-C ,  4-N ) :   1.0347 B(  3-C ,  6-O ) :   2.0953
B(  4-N ,  9-H ) :   0.8030

Dispersion correction           -0.004721943
FINAL SINGLE POINT ENERGY      -358.666797373080

DIPOLE MOMENT
-------------
                                X             Y             Z
Electronic contribution:     -0.00000       0.00000       1.55100
Nuclear contribution   :      0.00000       0.00000      -2.15133
                        -----------------------------------------
Total Dipole Moment    :     -0.00000       0.00000      -0.60034
                        -----------------------------------------
Magnitude (a.u.)       :      0.60034
Magnitude (Debye)      :      1.52594

Rotational constants in cm-1:     0.229535     0.079523     0.059061
Rotational constants in MHz :  6881.288128  2384.049841  1770.613649

                             ****ORCA TERMINATED NORMALLY****
TOTAL RUN TIME: 0 days 0 hours 0 minutes 48 seconds 783 msec
