                         Program Version 5.0.3 -  RELEASE  -
|  1> ! PBEh-3c def2/J TightSCF DefGrid3
|  2>
|  3> %maxcore 60000
|  4>
|  5> %pal
|  6> nprocs 4
|  7> end
|  8>
|  9> *xyzfile 1 1 aminocoohbz2.xyz
| 10>
| 11>                          ****END OF INPUT****

CARTESIAN COORDINATES (ANGSTROEM)
---------------------------------
  C      0.000000    0.000000   -1.911395
  C      1.221457    0.000000   -1.189373
  C      1.219380    0.000000    0.169630
  C      0.000000    0.000000    0.893723
  C     -1.219380    0.000000    0.169630
  C     -1.221457    0.000000   -1.189373
  N      0.000000    0.000000   -3.239714
  H      0.856530    0.000000   -3.768390
  H     -0.856530    0.000000   -3.768390
  H      2.162255    0.000000   -1.726373
  H      2.168506    0.000000    0.689910
  C      0.000000    0.000000    2.290433
  H     -2.168506    0.000000    0.689910
  H     -2.162255    0.000000   -1.726373
  O     -1.136764    0.000000    2.921637
  O      1.136764    0.000000    2.921637
  H     -1.104980    0.000000    3.886435
  H      1.104980    0.000000    3.886435

 Total Charge           Charge          ....    1
 Multiplicity           Mult            ....    1
 Number of Electrons    NEL             ....   72
 Basis Dimension        Dim             ....  166

ORBITAL ENERGIES
----------------

  NO   OCC          E(Eh)            E(eV)
   0   2.0000     -19.749138      -537.4014
   1   2.0000     -19.749043      -537.3988
   2   2.0000     -14.815167      -403.1412
   3   2.0000     -10.795197      -293.7522
   4   2.0000     -10.669356      -290.3279
   5   2.0000     -10.616844      -288.8990
   6   2.0000     -10.616794      -288.8977
   7   2.0000     -10.614786      -288.8430
   8   2.0000     -10.595327      -288.3135
   9   2.0000     -10.595295      -288.3126
  10   2.0000      -1.452273       -39.5184
  11   2.0000      -1.368748       -37.2455
  12   2.0000      -1.201513       -32.6948
  13   2.0000      -1.115211       -30.3464
  14   2.0000      -1.031829       -28.0775
  15   2.0000      -1.004003       -27.3203
  16   2.0000      -0.936849       -25.4930
  17   2.0000      -0.900932       -24.5156
  18   2.0000      -0.851042       -23.1580
  19   2.0000      -0.844443       -22.9785
  20   2.0000      -0.777412       -21.1545
  21   2.0000      -0.754004       -20.5175
  22   2.0000      -0.745498       -20.2860
  23   2.0000      -0.729065       -19.8389
  24   2.0000      -0.712160       -19.3789
  25   2.0000      -0.654062       -17.7979
  26   2.0000      -0.648154       -17.6372
  27   2.0000      -0.645616       -17.5681
  28   2.0000      -0.626398       -17.0452
  29   2.0000      -0.612142       -16.6572
  30   2.0000      -0.608891       -16.5688
  31   2.0000      -0.605314       -16.4714
  32   2.0000      -0.551314       -15.0020
  33   2.0000      -0.533987       -14.5305
  34   2.0000      -0.456940       -12.4340
  35   2.0000      -0.409047       -11.1307
  36   0.0000      -0.205148        -5.5824
  37   0.0000      -0.126654        -3.4464
  38   0.0000      -0.083675        -2.2769
  39   0.0000      -0.070925        -1.9300
  40   0.0000      -0.029046        -0.7904

MULLIKEN ATOMIC CHARGES
-----------------------
   0 C :    0.451151
   1 C :   -0.284182
   2 C :   -0.188952
   3 C :   -0.097029
   4 C :   -0.188953
   5 C :   -0.284182
   6 N :   -0.818397
   7 H :    0.399892
   8 H :    0.399892
   9 H :    0.266027
  10 H :    0.275037
  11 C :    0.603214
  12 H :    0.275037
  13 H :    0.266027
  14 O :   -0.519343
  15 O :   -0.519343
  16 H :    0.482053
  17 H :    0.482053
Sum of atomic charges:    1.0000000

LOEWDIN ATOMIC CHARGES
----------------------
   0 C :    0.097031
   1 C :   -0.160786
   2 C :   -0.045977
   3 C :   -0.153990
   4 C :   -0.045977
   5 C :   -0.160786
   6 N :   -0.283497
   7 H :    0.276899
   8 H :    0.276899
   9 H :    0.158527
  10 H :    0.167695
  11 C :    0.230027
  12 H :    0.167695
  13 H :    0.158527
  14 O :   -0.202972
  15 O :   -0.202972
  16 H :    0.361828
  17 H :    0.361828

  Mayer bond orders larger than 0.100000
B(  0-C ,  1-C ) :   1.1985 B(  0-C ,  5-C ) :   1.1985 B(  0-C ,  6-N ) :   1.1695
B(  1-C ,  2-C ) :   1.6035 B(  1-C ,  9-H ) :   0.9007 B(  2-C ,  3-C ) :   1.2062
B(  2-C , 10-H ) :   0.8990 B(  3-C ,  4-C ) :   1.2062 B(  3-C , 11-C ) :   1.2415
B(  4-C ,  5-C ) :   1.6035 B(  4-C , 12-H ) :   0.8990 B(  5-C , 13-H ) :   0.9007
B(  6-N ,  7-H ) :   0.8176 B(  6-N ,  8-H ) :   0.8176 B( 11-C , 14-O ) :   1.2758
B( 11-C , 15-O ) :   1.2758 B( 14-O , 16-H ) :   0.7206 B( 15-O , 17-H ) :   0.7206

Dispersion correction           -0.010144830
FINAL SINGLE POINT ENERGY      -475.499457525333

DIPOLE MOMENT
-------------
                                X             Y             Z
Electronic contribution:     -0.00000      -0.00000       4.65168
Nuclear contribution   :      0.00000       0.00000      -3.67687
                        -----------------------------------------
Total Dipole Moment    :     -0.00000      -0.00000       0.97481
                        -----------------------------------------
Magnitude (a.u.)       :      0.97481
Magnitude (Debye)      :      2.47777

Rotational constants in cm-1:     0.124179     0.026868     0.022089
Rotational constants in MHz :  3722.793542   805.490532   662.209990

                             ****ORCA TERMINATED NORMALLY****
TOTAL RUN TIME: 0 days 0 hours 2 minutes 12 seconds 486 msec
