                         Program Version 5.0.3 -  RELEASE  -
|  1> ! PBEh-3c def2/J TightSCF DefGrid3
|  2>
|  3> %maxcore 60000
|  4>
|  5> %pal
|  6> nprocs 4
|  7> end
|  8>
|  9> *xyzfile 0 1 HCON_C2H5_2.xyz
| 10>
| 11>                          ****END OF INPUT****

CARTESIAN COORDINATES (ANGSTROEM)
---------------------------------
  N      0.478888   -0.071185   -0.591146
  C      0.193872   -1.455153   -0.224403
  H      0.123693   -2.026627   -1.162335
  H      1.056922   -1.862847    0.331268
  C     -1.084640   -1.644812    0.595487
  H     -1.962677   -1.274382    0.048647
  H     -1.236106   -2.712541    0.810637
  H     -1.031270   -1.117216    1.557510
  C      0.854138    0.900668    0.443100
  H      1.199450    0.331767    1.319548
  H      1.707255    1.476323    0.054294
  C     -0.271136    1.864926    0.827705
  H     -1.143123    1.333693    1.232796
  H      0.084756    2.570623    1.592395
  H     -0.588822    2.443081   -0.048955
  C      0.528048    0.317522   -1.899959
  H      0.267567   -0.515175   -2.595242
  O      0.823184    1.441333   -2.291346

 Total Charge           Charge          ....    0
 Multiplicity           Mult            ....    1
 Number of Electrons    NEL             ....   56
 Basis Dimension        Dim             ....  127

ORBITAL ENERGIES
----------------

  NO   OCC          E(Eh)            E(eV)
   0   2.0000     -19.457618      -529.4687
   1   2.0000     -14.670233      -399.1973
   2   2.0000     -10.539459      -286.7933
   3   2.0000     -10.492089      -285.5043
   4   2.0000     -10.478099      -285.1236
   5   2.0000     -10.444867      -284.2193
   6   2.0000     -10.430232      -283.8210
   7   2.0000      -1.134296       -30.8658
   8   2.0000      -1.037200       -28.2236
   9   2.0000      -0.864948       -23.5364
  10   2.0000      -0.834862       -22.7177
  11   2.0000      -0.729329       -19.8460
  12   2.0000      -0.720051       -19.5936
  13   2.0000      -0.627613       -17.0782
  14   2.0000      -0.583227       -15.8704
  15   2.0000      -0.538874       -14.6635
  16   2.0000      -0.521136       -14.1808
  17   2.0000      -0.490946       -13.3593
  18   2.0000      -0.485872       -13.2212
  19   2.0000      -0.477031       -12.9807
  20   2.0000      -0.452812       -12.3217
  21   2.0000      -0.442562       -12.0427
  22   2.0000      -0.422330       -11.4922
  23   2.0000      -0.419221       -11.4076
  24   2.0000      -0.412318       -11.2197
  25   2.0000      -0.395130       -10.7520
  26   2.0000      -0.308126        -8.3845
  27   2.0000      -0.288411        -7.8481
  28   0.0000       0.060607         1.6492
  29   0.0000       0.122952         3.3457
  30   0.0000       0.146743         3.9931
  31   0.0000       0.161526         4.3953
  32   0.0000       0.172930         4.7057

MULLIKEN ATOMIC CHARGES
-----------------------
   0 N :   -0.414284
   1 C :   -0.277416
   2 H :    0.220126
   3 H :    0.219526
   4 C :   -0.638235
   5 H :    0.226501
   6 H :    0.222924
   7 H :    0.220974
   8 C :   -0.291521
   9 H :    0.212113
  10 H :    0.255328
  11 C :   -0.636696
  12 H :    0.210005
  13 H :    0.214574
  14 H :    0.249880
  15 C :    0.275534
  16 H :    0.153232
  17 O :   -0.422565
Sum of atomic charges:    0.0000000

LOEWDIN ATOMIC CHARGES
----------------------
   0 N :   -0.143560
   1 C :   -0.141695
   2 H :    0.126738
   3 H :    0.118716
   4 C :   -0.372355
   5 H :    0.133198
   6 H :    0.133135
   7 H :    0.129103
   8 C :   -0.143597
   9 H :    0.120326
  10 H :    0.141934
  11 C :   -0.368819
  12 H :    0.122978
  13 H :    0.129834
  14 H :    0.143456
  15 C :    0.065419
  16 H :    0.083085
  17 O :   -0.277896

  Mayer bond orders larger than 0.100000
B(  0-N ,  1-C ) :   0.9637 B(  0-N ,  8-C ) :   0.9156 B(  0-N , 15-C ) :   1.1703
B(  0-N , 17-O ) :   0.1023 B(  1-C ,  2-H ) :   0.9132 B(  1-C ,  3-H ) :   0.9063
B(  1-C ,  4-C ) :   0.9726 B(  4-C ,  5-H ) :   0.9232 B(  4-C ,  6-H ) :   0.9196
B(  4-C ,  7-H ) :   0.9235 B(  8-C ,  9-H ) :   0.9188 B(  8-C , 10-H ) :   0.9006
B(  8-C , 11-C ) :   0.9743 B( 11-C , 12-H ) :   0.9267 B( 11-C , 13-H ) :   0.9234
B( 11-C , 14-H ) :   0.9141 B( 15-C , 16-H ) :   0.8758 B( 15-C , 17-O ) :   1.9621

Dispersion correction           -0.008603239
FINAL SINGLE POINT ENERGY      -326.431847964809

DIPOLE MOMENT
-------------
                                X             Y             Z
Electronic contribution:      3.27037       2.16746      -6.48478
Nuclear contribution   :     -3.55910      -3.34400       7.49657
                        -----------------------------------------
Total Dipole Moment    :     -0.28874      -1.17654       1.01179
                        -----------------------------------------
Magnitude (a.u.)       :      1.57840
Magnitude (Debye)      :      4.01197

Rotational constants in cm-1:     0.108565     0.069662     0.048939
Rotational constants in MHz :  3254.699518  2088.425043  1467.139506

                             ****ORCA TERMINATED NORMALLY****
TOTAL RUN TIME: 0 days 0 hours 1 minutes 51 seconds 170 msec
