                         Program Version 5.0.3 -  RELEASE  -
|  1> ! PBEh-3c def2/J TightSCF DefGrid3
|  2>
|  3> %maxcore 60000
|  4>
|  5> %pal
|  6> nprocs 4
|  7> end
|  8>
|  9> *xyzfile 0 1 bih3_hcl.xyz
| 10>
| 11>                          ****END OF INPUT****

CARTESIAN COORDINATES (ANGSTROEM)
---------------------------------
  Bi     0.000000    0.000000    1.000010
  H     -0.718181    1.243926    2.021260
  H     -0.718181   -1.243926    2.021260
  H      1.436362    0.000000    2.021260
  Cl     0.000000    0.000000   -2.895508
  H      0.000000    0.000000   -4.168280

 Total Charge           Charge          ....    0
 Multiplicity           Mult            ....    1
 Number of Electrons    NEL             ....   44
 Basis Dimension        Dim             ....   52

ORBITAL ENERGIES
----------------

  NO   OCC          E(Eh)            E(eV)
   0   2.0000    -102.300853     -2783.7477
   1   2.0000      -9.769947      -265.8538
   2   2.0000      -7.457764      -202.9361
   3   2.0000      -7.449041      -202.6987
   4   2.0000      -7.449041      -202.6987
   5   2.0000      -6.165254      -167.7651
   6   2.0000      -3.855896      -104.9243
   7   2.0000      -3.855896      -104.9243
   8   2.0000      -3.851632      -104.8082
   9   2.0000      -1.136740       -30.9323
  10   2.0000      -1.136738       -30.9322
  11   2.0000      -1.129927       -30.7469
  12   2.0000      -1.129925       -30.7468
  13   2.0000      -1.126251       -30.6468
  14   2.0000      -0.931248       -25.3405
  15   2.0000      -0.678857       -18.4726
  16   2.0000      -0.526639       -14.3306
  17   2.0000      -0.378356       -10.2956
  18   2.0000      -0.378356       -10.2956
  19   2.0000      -0.364844        -9.9279
  20   2.0000      -0.364842        -9.9279
  21   2.0000      -0.305070        -8.3014
  22   0.0000       0.034175         0.9300
  23   0.0000       0.034177         0.9300
  24   0.0000       0.055288         1.5045
  25   0.0000       0.113869         3.0985
  26   0.0000       0.300305         8.1717

MULLIKEN ATOMIC CHARGES
-----------------------
   0 Bi:    0.015027
   1 H :   -0.006280
   2 H :   -0.006280
   3 H :   -0.006261
   4 Cl:   -0.284800
   5 H :    0.288595
Sum of atomic charges:    0.0000000

LOEWDIN ATOMIC CHARGES
----------------------
   0 Bi:    0.003842
   1 H :   -0.004108
   2 H :   -0.004108
   3 H :   -0.004097
   4 Cl:   -0.170383
   5 H :    0.178854

  Mayer bond orders larger than 0.100000
B(  0-Bi,  1-H ) :   0.9836 B(  0-Bi,  2-H ) :   0.9836 B(  0-Bi,  3-H ) :   0.9836
B(  4-Cl,  5-H ) :   0.8850

Dispersion correction           -0.001382913
FINAL SINGLE POINT ENERGY      -676.693540850378

DIPOLE MOMENT
-------------
                                X             Y             Z
Electronic contribution:      0.00003      -0.00000      81.27883
Nuclear contribution   :      0.00000       0.00000     -82.19472
                        -----------------------------------------
Total Dipole Moment    :      0.00003      -0.00000      -0.91589
                        -----------------------------------------
Magnitude (a.u.)       :      0.91589
Magnitude (Debye)      :      2.32801

Rotational constants in cm-1:     2.702013     0.034260     0.034260
Rotational constants in MHz : 81004.299675  1027.075273  1027.075272

                             ****ORCA TERMINATED NORMALLY****
TOTAL RUN TIME: 0 days 0 hours 1 minutes 27 seconds 568 msec
