                         Program Version 5.0.3 -  RELEASE  -
|  1> ! PBEh-3c def2/J TightSCF DefGrid3
|  2>
|  3> %maxcore 60000
|  4>
|  5> %pal
|  6> nprocs 4
|  7> end
|  8>
|  9> *xyzfile 0 1 3d.xyz
| 10>
| 11>                          ****END OF INPUT****

CARTESIAN COORDINATES (ANGSTROEM)
---------------------------------
  C     -2.436812   -1.257257   -0.094213
  C     -1.157371   -0.965628    0.192582
  O     -0.393956   -1.777222    1.003328
  C     -0.463777    0.198756   -0.319555
  C      0.797513    0.611003   -0.052354
  N      1.662807    0.027271    0.850290
  C      1.347207    1.847026   -0.697493
  H     -3.007079   -0.603577   -0.731923
  H     -2.917604   -2.140208    0.301221
  H     -0.944419   -2.512398    1.286715
  H     -1.043206    0.810686   -0.993436
  H      1.425998   -0.899902    1.158054
  H      2.640156    0.177663    0.673888
  H      0.623367    2.293075   -1.371537
  H      2.247211    1.611333   -1.267389
  H      1.619966    2.579379    0.061823

 Total Charge           Charge          ....    0
 Multiplicity           Mult            ....    1
 Number of Electrons    NEL             ....   54
 Basis Dimension        Dim             ....  123

ORBITAL ENERGIES
----------------

  NO   OCC          E(Eh)            E(eV)
   0   2.0000     -19.520175      -531.1710
   1   2.0000     -14.629751      -398.0958
   2   2.0000     -10.500412      -285.7307
   3   2.0000     -10.487254      -285.3727
   4   2.0000     -10.435897      -283.9752
   5   2.0000     -10.415694      -283.4255
   6   2.0000     -10.406691      -283.1804
   7   2.0000      -1.164267       -31.6813
   8   2.0000      -1.011554       -27.5258
   9   2.0000      -0.868970       -23.6459
  10   2.0000      -0.828972       -22.5575
  11   2.0000      -0.769212       -20.9313
  12   2.0000      -0.673971       -18.3397
  13   2.0000      -0.628706       -17.1080
  14   2.0000      -0.589706       -16.0467
  15   2.0000      -0.552613       -15.0374
  16   2.0000      -0.533096       -14.5063
  17   2.0000      -0.487490       -13.2653
  18   2.0000      -0.477002       -12.9799
  19   2.0000      -0.454401       -12.3649
  20   2.0000      -0.449383       -12.2283
  21   2.0000      -0.445739       -12.1292
  22   2.0000      -0.424093       -11.5402
  23   2.0000      -0.402183       -10.9440
  24   2.0000      -0.371485       -10.1086
  25   2.0000      -0.296947        -8.0803
  26   2.0000      -0.218035        -5.9330
  27   0.0000       0.031472         0.8564
  28   0.0000       0.114222         3.1081
  29   0.0000       0.145434         3.9575
  30   0.0000       0.155642         4.2352
  31   0.0000       0.179479         4.8839

MULLIKEN ATOMIC CHARGES
-----------------------
   0 C :   -0.656068
   1 C :    0.428902
   2 O :   -0.647583
   3 C :   -0.412935
   4 C :    0.321232
   5 N :   -0.810011
   6 C :   -0.702683
   7 H :    0.217530
   8 H :    0.199159
   9 H :    0.432201
  10 H :    0.209946
  11 H :    0.382436
  12 H :    0.337646
  13 H :    0.238914
  14 H :    0.220614
  15 H :    0.240702
Sum of atomic charges:    0.0000000

LOEWDIN ATOMIC CHARGES
----------------------
   0 C :   -0.398951
   1 C :    0.069473
   2 O :   -0.334127
   3 C :   -0.264646
   4 C :    0.030635
   5 N :   -0.388370
   6 C :   -0.352097
   7 H :    0.139482
   8 H :    0.123521
   9 H :    0.325644
  10 H :    0.140536
  11 H :    0.252964
  12 H :    0.239814
  13 H :    0.141311
  14 H :    0.133003
  15 H :    0.141810

  Mayer bond orders larger than 0.100000
B(  0-C ,  1-C ) :   1.7149 B(  0-C ,  7-H ) :   0.9278 B(  0-C ,  8-H ) :   0.9289
B(  1-C ,  2-O ) :   1.0442 B(  1-C ,  3-C ) :   1.1114 B(  2-O ,  9-H ) :   0.7764
B(  3-C ,  4-C ) :   1.6258 B(  3-C , 10-H ) :   0.9287 B(  4-C ,  5-N ) :   1.1366
B(  4-C ,  6-C ) :   0.9847 B(  5-N , 11-H ) :   0.7938 B(  5-N , 12-H ) :   0.8462
B(  6-C , 13-H ) :   0.9268 B(  6-C , 14-H ) :   0.9121 B(  6-C , 15-H ) :   0.9083

Dispersion correction           -0.007390341
FINAL SINGLE POINT ENERGY      -325.184876197392

DIPOLE MOMENT
-------------
                                X             Y             Z
Electronic contribution:     -0.42923      -3.26536       2.11726
Nuclear contribution   :      1.06400       3.04537      -2.12415
                        -----------------------------------------
Total Dipole Moment    :      0.63477      -0.21999      -0.00689
                        -----------------------------------------
Magnitude (a.u.)       :      0.67185
Magnitude (Debye)      :      1.70770

Rotational constants in cm-1:     0.179548     0.057174     0.043792
Rotational constants in MHz :  5382.707501  1714.042266  1312.845861

                             ****ORCA TERMINATED NORMALLY****
TOTAL RUN TIME: 0 days 0 hours 1 minutes 49 seconds 989 msec
