                         Program Version 5.0.3 -  RELEASE  -
|  1> ! PBEh-3c def2/J TightSCF DefGrid3
|  2>
|  3> %maxcore 60000
|  4>
|  5> %pal
|  6> nprocs 4
|  7> end
|  8>
|  9> *xyzfile 0 2 RKT06.xyz
| 10>
| 11>                          ****END OF INPUT****

CARTESIAN COORDINATES (ANGSTROEM)
---------------------------------
  H      0.000000    0.000000    0.000000
  H      0.000000    0.000000    0.929473
  H      0.000000    0.000000   -0.929473

 Total Charge           Charge          ....    0
 Multiplicity           Mult            ....    2
 Number of Electrons    NEL             ....    3
 Basis Dimension        Dim             ....    6

ORBITAL ENERGIES
----------------
                 SPIN UP ORBITALS
  NO   OCC          E(Eh)            E(eV)
   0   1.0000      -0.568256       -15.4630
   1   1.0000      -0.296499        -8.0682
   2   0.0000       0.198921         5.4129
   3   0.0000       0.781655        21.2699
   4   0.0000       0.878322        23.9003
   5   0.0000       1.167910        31.7804

                 SPIN DOWN ORBITALS
  NO   OCC          E(Eh)            E(eV)
   0   1.0000      -0.503642       -13.7048
   1   0.0000      -0.052131        -1.4186
   2   0.0000       0.252793         6.8789
   3   0.0000       0.828201        22.5365
   4   0.0000       0.963999        26.2317
   5   0.0000       1.203078        32.7374

MULLIKEN ATOMIC CHARGES AND SPIN POPULATIONS
--------------------------------------------
   0 H :   -0.095319   -0.227114
   1 H :    0.047659    0.613557
   2 H :    0.047659    0.613557
Sum of atomic charges         :   -0.0000000

LOEWDIN ATOMIC CHARGES AND SPIN POPULATIONS
-------------------------------------------
   0 H :    0.009119   -0.111225
   1 H :   -0.004560    0.555612
   2 H :   -0.004560    0.555612

  Mayer bond orders larger than 0.100000
B(  0-H ,  1-H ) :   0.4697 B(  0-H ,  2-H ) :   0.4697 B(  1-H ,  2-H ) :   0.1085

Dispersion correction           -0.000329579
FINAL SINGLE POINT ENERGY        -1.657734588199

DIPOLE MOMENT
-------------
                                X             Y             Z
Electronic contribution:     -0.00000      -0.00000       0.00000
Nuclear contribution   :      0.00000       0.00000       0.00000
                        -----------------------------------------
Total Dipole Moment    :      0.00000       0.00000       0.00000
                        -----------------------------------------
Magnitude (a.u.)       :      0.00000
Magnitude (Debye)      :      0.00000

Rotational constants in cm-1:     0.000000     9.679046     9.679046
Rotational constants in MHz :     0.000000 290170.487017 290170.487017

                             ****ORCA TERMINATED NORMALLY****
TOTAL RUN TIME: 0 days 0 hours 0 minutes 36 seconds 578 msec
