                         Program Version 5.0.3 -  RELEASE  -
|  1> ! PBEh-3c def2/J TightSCF DefGrid3
|  2>
|  3> %maxcore 60000
|  4>
|  5> %pal
|  6> nprocs 4
|  7> end
|  8>
|  9> *xyzfile 0 1 c-hono.xyz
| 10>
| 11>                          ****END OF INPUT****

CARTESIAN COORDINATES (ANGSTROEM)
---------------------------------
  O      1.043454   -0.247975    0.000000
  N      0.130794    0.506436    0.000000
  O     -1.102034   -0.127440    0.000000
  H     -0.887750   -1.078563    0.000000

 Total Charge           Charge          ....    0
 Multiplicity           Mult            ....    1
 Number of Electrons    NEL             ....   24
 Basis Dimension        Dim             ....   47

ORBITAL ENERGIES
----------------

  NO   OCC          E(Eh)            E(eV)
   0   2.0000     -19.583229      -532.8867
   1   2.0000     -19.575589      -532.6789
   2   2.0000     -14.837720      -403.7549
   3   2.0000      -1.358576       -36.9687
   4   2.0000      -1.175198       -31.9788
   5   2.0000      -0.793851       -21.6018
   6   2.0000      -0.636013       -17.3068
   7   2.0000      -0.593769       -16.1573
   8   2.0000      -0.577430       -15.7127
   9   2.0000      -0.475665       -12.9435
  10   2.0000      -0.416700       -11.3390
  11   2.0000      -0.349731        -9.5167
  12   0.0000      -0.048556        -1.3213
  13   0.0000       0.124343         3.3836
  14   0.0000       0.187786         5.1099
  15   0.0000       0.369741        10.0612
  16   0.0000       0.697769        18.9873

MULLIKEN ATOMIC CHARGES
-----------------------
   0 O :   -0.261728
   1 N :    0.336600
   2 O :   -0.486911
   3 H :    0.412040
Sum of atomic charges:   -0.0000000

LOEWDIN ATOMIC CHARGES
----------------------
   0 O :   -0.133975
   1 N :    0.132425
   2 O :   -0.287373
   3 H :    0.288924

  Mayer bond orders larger than 0.100000
B(  0-O ,  1-N ) :   1.9240 B(  0-O ,  2-O ) :   0.1564 B(  1-N ,  2-O ) :   1.0998
B(  2-O ,  3-H ) :   0.7582

Dispersion correction           -0.000705413
FINAL SINGLE POINT ENERGY      -205.263350200487

DIPOLE MOMENT
-------------
                                X             Y             Z
Electronic contribution:      0.65115       0.44505      -0.00000
Nuclear contribution   :     -0.83301      -1.01465       0.00000
                        -----------------------------------------
Total Dipole Moment    :     -0.18186      -0.56960      -0.00000
                        -----------------------------------------
Magnitude (a.u.)       :      0.59793
Magnitude (Debye)      :      1.51982

Rotational constants in cm-1:     2.805523     0.444979     0.384064
Rotational constants in MHz : 84107.469600 13340.141587 11513.935943

                             ****ORCA TERMINATED NORMALLY****
TOTAL RUN TIME: 0 days 0 hours 0 minutes 56 seconds 219 msec
