                         Program Version 5.0.3 -  RELEASE  -
|  1> ! PBEh-3c def2/J TightSCF DefGrid3
|  2>
|  3> %maxcore 60000
|  4>
|  5> %pal
|  6> nprocs 4
|  7> end
|  8>
|  9> *xyzfile 0 1 02B.xyz
| 10>
| 11>                          ****END OF INPUT****

CARTESIAN COORDINATES (ANGSTROEM)
---------------------------------
  O     -0.706504   -0.839990    0.000000
  H     -0.093883   -1.579183    0.000000
  C      0.064146    0.359093    0.000000
  H     -0.642027    1.182510    0.000000
  H      0.689134    0.438785    0.889481
  H      0.689134    0.438785   -0.889481

 Total Charge           Charge          ....    0
 Multiplicity           Mult            ....    1
 Number of Electrons    NEL             ....   18
 Basis Dimension        Dim             ....   38

ORBITAL ENERGIES
----------------

  NO   OCC          E(Eh)            E(eV)
   0   2.0000     -19.481576      -530.1206
   1   2.0000     -10.473022      -284.9854
   2   2.0000      -1.115746       -30.3610
   3   2.0000      -0.761046       -20.7091
   4   2.0000      -0.565174       -15.3792
   5   2.0000      -0.498152       -13.5554
   6   2.0000      -0.478992       -13.0340
   7   2.0000      -0.388365       -10.5679
   8   2.0000      -0.325384        -8.8541
   9   0.0000       0.130478         3.5505
  10   0.0000       0.194455         5.2914
  11   0.0000       0.219621         5.9762
  12   0.0000       0.233610         6.3569
  13   0.0000       0.237028         6.4499

MULLIKEN ATOMIC CHARGES
-----------------------
   0 O :   -0.630384
   1 H :    0.412229
   2 C :   -0.371082
   3 H :    0.219078
   4 H :    0.185080
   5 H :    0.185080
Sum of atomic charges:   -0.0000000

LOEWDIN ATOMIC CHARGES
----------------------
   0 O :   -0.427412
   1 H :    0.304860
   2 C :   -0.196809
   3 H :    0.122778
   4 H :    0.098292
   5 H :    0.098292

  Mayer bond orders larger than 0.100000
B(  0-O ,  1-H ) :   0.7979 B(  0-O ,  2-C ) :   1.0135 B(  2-C ,  3-H ) :   0.9250
B(  2-C ,  4-H ) :   0.9185 B(  2-C ,  5-H ) :   0.9185

Dispersion correction           -0.001081037
FINAL SINGLE POINT ENERGY      -115.466829359131

DIPOLE MOMENT
-------------
                                X             Y             Z
Electronic contribution:     -1.04917      -1.43968      -0.00000
Nuclear contribution   :      1.75452       1.45477       0.00000
                        -----------------------------------------
Total Dipole Moment    :      0.70535       0.01509      -0.00000
                        -----------------------------------------
Magnitude (a.u.)       :      0.70552
Magnitude (Debye)      :      1.79328

Rotational constants in cm-1:     4.293555     0.824354     0.795706
Rotational constants in MHz : 128717.550694 24713.511897 23854.671066

                             ****ORCA TERMINATED NORMALLY****
TOTAL RUN TIME: 0 days 0 hours 0 minutes 59 seconds 241 msec
