                         Program Version 5.0.3 -  RELEASE  -
|  1> ! PBEh-3c def2/J TightSCF DefGrid3
|  2>
|  3> %maxcore 60000
|  4>
|  5> %pal
|  6> nprocs 4
|  7> end
|  8>
|  9> *xyzfile 0 2 P16.xyz
| 10>
| 11>                          ****END OF INPUT****

CARTESIAN COORDINATES (ANGSTROEM)
---------------------------------
  C     -2.006961    0.002281    0.405322
  C     -0.771271    0.014449   -0.360656
  N      0.388501    0.038190    0.375152
  O     -0.759324    0.014677   -1.591402
  H      0.335365   -0.048276    1.376045
  C      1.690795   -0.001677   -0.262931
  H     -2.025196    0.004093    1.488193
  H     -2.938971   -0.008320   -0.139734
  H      1.706853    0.690661   -1.104362
  H      1.929187   -0.999341   -0.645412
  H      2.451021    0.293262    0.459785

 Total Charge           Charge          ....    0
 Multiplicity           Mult            ....    2
 Number of Electrons    NEL             ....   39
 Basis Dimension        Dim             ....   87

ORBITAL ENERGIES
----------------
                 SPIN UP ORBITALS
  NO   OCC          E(Eh)            E(eV)
   0   1.0000     -19.455159      -529.4018
   1   1.0000     -14.660458      -398.9314
   2   1.0000     -10.543117      -286.8928
   3   1.0000     -10.474678      -285.0305
   4   1.0000     -10.467739      -284.8416
   5   1.0000      -1.138249       -30.9733
   6   1.0000      -1.016755       -27.6673
   7   1.0000      -0.846587       -23.0368
   8   1.0000      -0.765631       -20.8339
   9   1.0000      -0.653897       -17.7934
  10   1.0000      -0.578889       -15.7524
  11   1.0000      -0.542466       -14.7613
  12   1.0000      -0.513158       -13.9637
  13   1.0000      -0.479393       -13.0450
  14   1.0000      -0.469766       -12.7830
  15   1.0000      -0.448329       -12.1996
  16   1.0000      -0.445609       -12.1256
  17   1.0000      -0.315929        -8.5969
  18   1.0000      -0.311170        -8.4674
  19   1.0000      -0.292275        -7.9532
  20   0.0000       0.095892         2.6094
  21   0.0000       0.118603         3.2274
  22   0.0000       0.171436         4.6650
  23   0.0000       0.188200         5.1212
  24   0.0000       0.195006         5.3064

                 SPIN DOWN ORBITALS
  NO   OCC          E(Eh)            E(eV)
   0   1.0000     -19.450601      -529.2778
   1   1.0000     -14.659222      -398.8977
   2   1.0000     -10.545323      -286.9528
   3   1.0000     -10.467809      -284.8436
   4   1.0000     -10.459932      -284.6292
   5   1.0000      -1.130885       -30.7729
   6   1.0000      -1.012547       -27.5528
   7   1.0000      -0.821658       -22.3585
   8   1.0000      -0.747605       -20.3434
   9   1.0000      -0.651344       -17.7240
  10   1.0000      -0.570861       -15.5339
  11   1.0000      -0.536094       -14.5879
  12   1.0000      -0.506832       -13.7916
  13   1.0000      -0.472995       -12.8709
  14   1.0000      -0.464388       -12.6366
  15   1.0000      -0.445146       -12.1130
  16   1.0000      -0.426632       -11.6092
  17   1.0000      -0.307009        -8.3541
  18   1.0000      -0.288575        -7.8525
  19   0.0000      -0.070159        -1.9091
  20   0.0000       0.119190         3.2433
  21   0.0000       0.126630         3.4458
  22   0.0000       0.175078         4.7641
  23   0.0000       0.191474         5.2103

MULLIKEN ATOMIC CHARGES AND SPIN POPULATIONS
--------------------------------------------
   0 C :   -0.510433    1.040010
   1 C :    0.537175   -0.123765
   2 N :   -0.645971    0.045418
   3 O :   -0.424123    0.152238
   4 H :    0.350756   -0.002289
   5 C :   -0.482419   -0.005885
   6 H :    0.223930   -0.054527
   7 H :    0.260615   -0.057703
   8 H :    0.251510    0.000981
   9 H :    0.226573    0.004866
  10 H :    0.212387    0.000655
Sum of atomic charges         :    0.0000000

LOEWDIN ATOMIC CHARGES AND SPIN POPULATIONS
-------------------------------------------
   0 C :   -0.217366    0.916674
   1 C :    0.074708   -0.051148
   2 N :   -0.259461    0.043597
   3 O :   -0.269978    0.143325
   4 H :    0.250080   -0.001489
   5 C :   -0.253459   -0.002425
   6 H :    0.131390   -0.026764
   7 H :    0.154128   -0.027024
   8 H :    0.142406    0.001005
   9 H :    0.123582    0.003757
  10 H :    0.123971    0.000493

  Mayer bond orders larger than 0.100000
B(  0-C ,  1-C ) :   1.0394 B(  0-C ,  6-H ) :   0.9079 B(  0-C ,  7-H ) :   0.9111
B(  1-C ,  2-N ) :   1.0827 B(  1-C ,  3-O ) :   1.9414 B(  2-N ,  4-H ) :   0.8339
B(  2-N ,  5-C ) :   0.9569 B(  5-C ,  8-H ) :   0.9088 B(  5-C ,  9-H ) :   0.9146
B(  5-C , 10-H ) :   0.9274

Dispersion correction           -0.004070124
FINAL SINGLE POINT ENERGY      -247.324323905711

DIPOLE MOMENT
-------------
                                X             Y             Z
Electronic contribution:     -2.45980       0.07800      -1.50086
Nuclear contribution   :      2.79300      -0.13242       3.00001
                        -----------------------------------------
Total Dipole Moment    :      0.33320      -0.05443       1.49915
                        -----------------------------------------
Magnitude (a.u.)       :      1.53669
Magnitude (Debye)      :      3.90597

Rotational constants in cm-1:     0.350259     0.136119     0.099874
Rotational constants in MHz : 10500.501418  4080.735683  2994.138012

                             ****ORCA TERMINATED NORMALLY****
TOTAL RUN TIME: 0 days 0 hours 2 minutes 57 seconds 175 msec
