                         Program Version 5.0.3 -  RELEASE  -
|  1> ! PBEh-3c def2/J TightSCF DefGrid3
|  2>
|  3> %maxcore 60000
|  4>
|  5> %pal
|  6> nprocs 4
|  7> end
|  8>
|  9> *xyzfile 0 1 01B.xyz
| 10>
| 11>                          ****END OF INPUT****

CARTESIAN COORDINATES (ANGSTROEM)
---------------------------------
  O      0.000000    0.000000   -0.394087
  H     -0.756003    0.000000    0.197036
  H      0.756003    0.000000    0.197036

 Total Charge           Charge          ....    0
 Multiplicity           Mult            ....    1
 Number of Electrons    NEL             ....   10
 Basis Dimension        Dim             ....   19

ORBITAL ENERGIES
----------------

  NO   OCC          E(Eh)            E(eV)
   0   2.0000     -19.474395      -529.9252
   1   2.0000      -1.103278       -30.0217
   2   2.0000      -0.581247       -15.8165
   3   2.0000      -0.435535       -11.8515
   4   2.0000      -0.356713        -9.7067
   5   0.0000       0.131589         3.5807
   6   0.0000       0.209513         5.7011
   7   0.0000       0.872145        23.7323
   8   0.0000       0.982909        26.7463
   9   0.0000       0.991505        26.9802

MULLIKEN ATOMIC CHARGES
-----------------------
   0 O :   -0.816243
   1 H :    0.408121
   2 H :    0.408121
Sum of atomic charges:   -0.0000000

LOEWDIN ATOMIC CHARGES
----------------------
   0 O :   -0.596870
   1 H :    0.298435
   2 H :    0.298435

  Mayer bond orders larger than 0.100000
B(  0-O ,  1-H ) :   0.8160 B(  0-O ,  2-H ) :   0.8160

Dispersion correction           -0.000209583
FINAL SINGLE POINT ENERGY       -76.258018675404

DIPOLE MOMENT
-------------
                                X             Y             Z
Electronic contribution:     -0.00000      -0.00000      -0.13141
Nuclear contribution   :      0.00000       0.00000       0.98406
                        -----------------------------------------
Total Dipole Moment    :     -0.00000      -0.00000       0.85264
                        -----------------------------------------
Magnitude (a.u.)       :      0.85264
Magnitude (Debye)      :      2.16725

Rotational constants in cm-1:    26.945853    14.630498     9.482103
Rotational constants in MHz : 807816.355734 438611.292267 284266.299990

                             ****ORCA TERMINATED NORMALLY****
TOTAL RUN TIME: 0 days 0 hours 0 minutes 54 seconds 19 msec
