                         Program Version 5.0.3 -  RELEASE  -
|  1> ! PBEh-3c def2/J TightSCF DefGrid3
|  2>
|  3> %maxcore 60000
|  4>
|  5> %pal
|  6> nprocs 4
|  7> end
|  8>
|  9> *xyzfile 0 1 h2s-cbh22.xyz
| 10>
| 11>                          ****END OF INPUT****

CARTESIAN COORDINATES (ANGSTROEM)
---------------------------------
  C      0.000000    0.589706    0.000000
  S     -0.092665   -1.164702    0.000000
  B      1.354772    1.235109    0.000000
  H      1.427682    2.424490    0.000000
  H      2.360819    0.578359    0.000000
  B     -1.359822    1.222365    0.000000
  H     -1.429831    2.412540    0.000000
  H     -2.361099    0.563883    0.000000
  H      0.755156   -1.584819    0.962404
  H      0.755156   -1.584819   -0.962404

 Total Charge           Charge          ....    0
 Multiplicity           Mult            ....    1
 Number of Electrons    NEL             ....   38
 Basis Dimension        Dim             ....   75

ORBITAL ENERGIES
----------------

  NO   OCC          E(Eh)            E(eV)
   0   2.0000     -89.696460     -2440.7648
   1   2.0000     -10.426434      -283.7177
   2   2.0000      -8.335112      -226.8099
   3   2.0000      -6.933661      -188.6745
   4   2.0000      -6.926167      -188.4706
   5   2.0000      -6.224345      -169.3730
   6   2.0000      -6.223537      -169.3510
   7   2.0000      -6.218952      -169.2263
   8   2.0000      -0.947768       -25.7901
   9   2.0000      -0.733714       -19.9654
  10   2.0000      -0.574139       -15.6231
  11   2.0000      -0.571492       -15.5511
  12   2.0000      -0.532202       -14.4820
  13   2.0000      -0.461076       -12.5465
  14   2.0000      -0.430999       -11.7281
  15   2.0000      -0.367195        -9.9919
  16   2.0000      -0.354629        -9.6499
  17   2.0000      -0.344494        -9.3742
  18   2.0000      -0.290065        -7.8931
  19   0.0000      -0.021992        -0.5984
  20   0.0000       0.015847         0.4312
  21   0.0000       0.037771         1.0278
  22   0.0000       0.082828         2.2539
  23   0.0000       0.100802         2.7430

MULLIKEN ATOMIC CHARGES
-----------------------
   0 C :   -0.480671
   1 S :    0.003144
   2 B :   -0.057717
   3 H :    0.046880
   4 H :    0.008362
   5 B :   -0.048520
   6 H :    0.043335
   7 H :    0.017214
   8 H :    0.233986
   9 H :    0.233986
Sum of atomic charges:   -0.0000000

LOEWDIN ATOMIC CHARGES
----------------------
   0 C :   -0.469066
   1 S :    0.484517
   2 B :   -0.127206
   3 H :    0.022877
   4 H :   -0.008090
   5 B :   -0.153319
   6 H :    0.020241
   7 H :   -0.000462
   8 H :    0.115254
   9 H :    0.115254

  Mayer bond orders larger than 0.100000
B(  0-C ,  1-S ) :   0.9879 B(  0-C ,  2-B ) :   1.2420 B(  0-C ,  5-B ) :   1.2561
B(  1-S ,  8-H ) :   0.8551 B(  1-S ,  9-H ) :   0.8551 B(  2-B ,  3-H ) :   0.9855
B(  2-B ,  4-H ) :   0.9858 B(  5-B ,  6-H ) :   0.9896 B(  5-B ,  7-H ) :   0.9871

Dispersion correction           -0.004009943
FINAL SINGLE POINT ENERGY      -488.850760992548

DIPOLE MOMENT
-------------
                                X             Y             Z
Electronic contribution:     -1.00054      -2.77311      -0.00000
Nuclear contribution   :      1.50695       0.86084       0.00000
                        -----------------------------------------
Total Dipole Moment    :      0.50641      -1.91227      -0.00000
                        -----------------------------------------
Magnitude (a.u.)       :      1.97819
Magnitude (Debye)      :      5.02815

Rotational constants in cm-1:     0.288617     0.169059     0.109190
Rotational constants in MHz :  8652.505515  5068.254167  3273.424043

                             ****ORCA TERMINATED NORMALLY****
TOTAL RUN TIME: 0 days 0 hours 1 minutes 12 seconds 259 msec
