                         Program Version 5.0.3 -  RELEASE  -
|  1> ! PBEh-3c def2/J TightSCF DefGrid3
|  2>
|  3> %maxcore 60000
|  4>
|  5> %pal
|  6> nprocs 4
|  7> end
|  8>
|  9> *xyzfile 0 1 ca.xyz
| 10>
| 11>                          ****END OF INPUT****

CARTESIAN COORDINATES (ANGSTROEM)
---------------------------------
  Ca     0.000000    0.000000    0.000000

 Total Charge           Charge          ....    0
 Multiplicity           Mult            ....    1
 Number of Electrons    NEL             ....   20
 Basis Dimension        Dim             ....   24

ORBITAL ENERGIES
----------------

  NO   OCC          E(Eh)            E(eV)
   0   2.0000    -146.349841     -3982.3816
   1   2.0000     -15.835383      -430.9027
   2   2.0000     -12.880252      -350.4895
   3   2.0000     -12.880252      -350.4895
   4   2.0000     -12.880252      -350.4895
   5   2.0000      -1.961974       -53.3880
   6   2.0000      -1.185885       -32.2696
   7   2.0000      -1.185885       -32.2696
   8   2.0000      -1.185885       -32.2696
   9   2.0000      -0.176228        -4.7954
  10   0.0000       0.004272         0.1162
  11   0.0000       0.004272         0.1162
  12   0.0000       0.004272         0.1162
  13   0.0000       0.009557         0.2601
  14   0.0000       0.009557         0.2601

MULLIKEN ATOMIC CHARGES
-----------------------
   0 Ca:    0.000000
Sum of atomic charges:    0.0000000

LOEWDIN ATOMIC CHARGES
----------------------
   0 Ca:    0.000000

Dispersion correction            0.000000000
FINAL SINGLE POINT ENERGY      -677.033656220383

DIPOLE MOMENT
-------------
                                X             Y             Z
Electronic contribution:      0.00002      -0.00001       0.00001
Nuclear contribution   :      0.00000       0.00000       0.00000
                        -----------------------------------------
Total Dipole Moment    :      0.00002      -0.00001       0.00001
                        -----------------------------------------
Magnitude (a.u.)       :      0.00002
Magnitude (Debye)      :      0.00006

Rotational constants in cm-1:     0.000000     0.000000     0.000000
Rotational constants in MHz :     0.000000     0.000000     0.000000

                             ****ORCA TERMINATED NORMALLY****
TOTAL RUN TIME: 0 days 0 hours 0 minutes 23 seconds 971 msec
