                         Program Version 5.0.3 -  RELEASE  -
|  1> ! PBEh-3c def2/J TightSCF DefGrid3
|  2>
|  3> %maxcore 60000
|  4>
|  5> %pal
|  6> nprocs 4
|  7> end
|  8>
|  9> *xyzfile 0 1 p8.xyz
| 10>
| 11>                          ****END OF INPUT****

CARTESIAN COORDINATES (ANGSTROEM)
---------------------------------
  C     -4.297731   -0.204671    0.000000
  C     -3.104805    0.404086    0.000000
  C     -1.833344   -0.281887    0.000000
  C     -0.634096    0.338972    0.000000
  C      0.634096   -0.338972    0.000000
  C      1.833344    0.281887    0.000000
  C      3.104805   -0.404086    0.000000
  C      4.297731    0.204671    0.000000
  H     -4.383032   -1.285995    0.000000
  H     -5.221755    0.358958    0.000000
  H     -3.067342    1.491121    0.000000
  H     -1.863266   -1.369556    0.000000
  H     -0.608828    1.426917    0.000000
  H      0.608828   -1.426917    0.000000
  H      1.863266    1.369556    0.000000
  H      3.067342   -1.491121    0.000000
  H      4.383032    1.285995    0.000000
  H      5.221755   -0.358958    0.000000

 Total Charge           Charge          ....    0
 Multiplicity           Mult            ....    1
 Number of Electrons    NEL             ....   58
 Basis Dimension        Dim             ....  140

ORBITAL ENERGIES
----------------

  NO   OCC          E(Eh)            E(eV)
   0   2.0000     -10.455208      -284.5007
   1   2.0000     -10.454895      -284.4922
   2   2.0000     -10.453917      -284.4655
   3   2.0000     -10.453874      -284.4644
   4   2.0000     -10.453506      -284.4544
   5   2.0000     -10.453490      -284.4539
   6   2.0000     -10.442716      -284.1607
   7   2.0000     -10.442713      -284.1607
   8   2.0000      -0.926205       -25.2033
   9   2.0000      -0.897916       -24.4335
  10   2.0000      -0.855343       -23.2751
  11   2.0000      -0.802508       -21.8373
  12   2.0000      -0.712350       -19.3840
  13   2.0000      -0.646797       -17.6002
  14   2.0000      -0.636415       -17.3177
  15   2.0000      -0.620395       -16.8818
  16   2.0000      -0.551022       -14.9941
  17   2.0000      -0.541120       -14.7246
  18   2.0000      -0.511142       -13.9089
  19   2.0000      -0.486345       -13.2341
  20   2.0000      -0.459748       -12.5104
  21   2.0000      -0.446023       -12.1369
  22   2.0000      -0.427761       -11.6400
  23   2.0000      -0.409622       -11.1464
  24   2.0000      -0.404491       -11.0068
  25   2.0000      -0.400560       -10.8998
  26   2.0000      -0.367754       -10.0071
  27   2.0000      -0.310697        -8.4545
  28   2.0000      -0.237644        -6.4666
  29   0.0000      -0.043920        -1.1951
  30   0.0000       0.040121         1.0917
  31   0.0000       0.103192         2.8080
  32   0.0000       0.124674         3.3925
  33   0.0000       0.143891         3.9155

MULLIKEN ATOMIC CHARGES
-----------------------
   0 C :   -0.499722
   1 C :   -0.151279
   2 C :   -0.219751
   3 C :   -0.208221
   4 C :   -0.208222
   5 C :   -0.219750
   6 C :   -0.151278
   7 C :   -0.499723
   8 H :    0.216643
   9 H :    0.222453
  10 H :    0.215589
  11 H :    0.211885
  12 H :    0.212404
  13 H :    0.212404
  14 H :    0.211885
  15 H :    0.215589
  16 H :    0.216644
  17 H :    0.222452
Sum of atomic charges:    0.0000000

LOEWDIN ATOMIC CHARGES
----------------------
   0 C :   -0.259988
   1 C :   -0.139585
   2 C :   -0.134833
   3 C :   -0.133944
   4 C :   -0.133944
   5 C :   -0.134833
   6 C :   -0.139585
   7 C :   -0.259988
   8 H :    0.131446
   9 H :    0.135586
  10 H :    0.133419
  11 H :    0.133823
  12 H :    0.134076
  13 H :    0.134076
  14 H :    0.133823
  15 H :    0.133419
  16 H :    0.131446
  17 H :    0.135586

  Mayer bond orders larger than 0.100000
B(  0-C ,  1-C ) :   1.8126 B(  0-C ,  3-C ) :   0.1004 B(  0-C ,  8-H ) :   0.9297
B(  0-C ,  9-H ) :   0.9279 B(  1-C ,  2-C ) :   1.1160 B(  1-C , 10-H ) :   0.9206
B(  2-C ,  3-C ) :   1.6800 B(  2-C , 11-H ) :   0.9234 B(  3-C ,  4-C ) :   1.1290
B(  3-C , 12-H ) :   0.9229 B(  4-C ,  5-C ) :   1.6800 B(  4-C ,  7-C ) :   0.1004
B(  4-C , 13-H ) :   0.9229 B(  5-C ,  6-C ) :   1.1160 B(  5-C , 14-H ) :   0.9234
B(  6-C ,  7-C ) :   1.8126 B(  6-C , 15-H ) :   0.9206 B(  7-C , 16-H ) :   0.9297
B(  7-C , 17-H ) :   0.9279

Dispersion correction           -0.008298964
FINAL SINGLE POINT ENERGY      -310.095500389633

DIPOLE MOMENT
-------------
                                X             Y             Z
Electronic contribution:      0.00000       0.00000      -0.00000
Nuclear contribution   :      0.00000      -0.00000       0.00000
                        -----------------------------------------
Total Dipole Moment    :      0.00000       0.00000      -0.00000
                        -----------------------------------------
Magnitude (a.u.)       :      0.00000
Magnitude (Debye)      :      0.00000

Rotational constants in cm-1:     0.659530     0.019025     0.018492
Rotational constants in MHz : 19772.208066   570.354752   554.363427

                             ****ORCA TERMINATED NORMALLY****
TOTAL RUN TIME: 0 days 0 hours 1 minutes 24 seconds 23 msec
