                         Program Version 5.0.3 -  RELEASE  -
|  1> ! PBEh-3c def2/J TightSCF DefGrid3
|  2>
|  3> %maxcore 60000
|  4>
|  5> %pal
|  6> nprocs 4
|  7> end
|  8>
|  9> *xyzfile 0 1 2O_B.xyz
| 10>
| 11>                          ****END OF INPUT****

CARTESIAN COORDINATES (ANGSTROEM)
---------------------------------
  C     -0.781276    0.151728   -0.741982
  Cl     0.132257   -0.003753   -2.165168
  C      0.053509    0.016127    0.460191
  H      1.140159    0.005318    0.354022
  H     -0.267176    0.764920    1.189482
  H     -0.277473   -0.934340    0.903455

 Total Charge           Charge          ....    0
 Multiplicity           Mult            ....    1
 Number of Electrons    NEL             ....   32
 Basis Dimension        Dim             ....   54

ORBITAL ENERGIES
----------------

  NO   OCC          E(Eh)            E(eV)
   0   2.0000    -102.324252     -2784.3845
   1   2.0000     -10.530627      -286.5529
   2   2.0000     -10.456438      -284.5341
   3   2.0000      -9.792753      -266.4744
   4   2.0000      -7.478862      -203.5102
   5   2.0000      -7.474370      -203.3879
   6   2.0000      -7.470879      -203.2929
   7   2.0000      -0.987249       -26.8644
   8   2.0000      -0.846436       -23.0327
   9   2.0000      -0.636033       -17.3073
  10   2.0000      -0.519426       -14.1343
  11   2.0000      -0.499942       -13.6041
  12   2.0000      -0.479463       -13.0469
  13   2.0000      -0.410057       -11.1582
  14   2.0000      -0.390680       -10.6309
  15   2.0000      -0.268788        -7.3141
  16   0.0000      -0.059624        -1.6225
  17   0.0000       0.104366         2.8399
  18   0.0000       0.157962         4.2984
  19   0.0000       0.187960         5.1147
  20   0.0000       0.207725         5.6525

MULLIKEN ATOMIC CHARGES
-----------------------
   0 C :    0.004034
   1 Cl:   -0.049058
   2 C :   -0.734495
   3 H :    0.236446
   4 H :    0.270513
   5 H :    0.272560
Sum of atomic charges:    0.0000000

LOEWDIN ATOMIC CHARGES
----------------------
   0 C :   -0.184646
   1 Cl:    0.146038
   2 C :   -0.431381
   3 H :    0.123181
   4 H :    0.166051
   5 H :    0.180758

  Mayer bond orders larger than 0.100000
B(  0-C ,  1-Cl) :   1.2614 B(  0-C ,  2-C ) :   1.0451 B(  2-C ,  3-H ) :   0.8947
B(  2-C ,  4-H ) :   0.8838 B(  2-C ,  5-H ) :   0.8674

Dispersion correction           -0.001836224
FINAL SINGLE POINT ENERGY      -537.416984227815

DIPOLE MOMENT
-------------
                                X             Y             Z
Electronic contribution:      0.16714       0.04622      -6.42251
Nuclear contribution   :      0.46250      -0.18938       7.03173
                        -----------------------------------------
Total Dipole Moment    :      0.62964      -0.14317       0.60921
                        -----------------------------------------
Magnitude (a.u.)       :      0.88774
Magnitude (Debye)      :      2.25646

Rotational constants in cm-1:     1.654048     0.202021     0.185964
Rotational constants in MHz : 49587.107749  6056.435207  5575.059010

                             ****ORCA TERMINATED NORMALLY****
TOTAL RUN TIME: 0 days 0 hours 0 minutes 17 seconds 857 msec
