                         Program Version 5.0.3 -  RELEASE  -
|  1> ! PBEh-3c def2/J TightSCF DefGrid3
|  2>
|  3> %maxcore 60000
|  4>
|  5> %pal
|  6> nprocs 4
|  7> end
|  8>
|  9> *xyzfile 0 2 02.xyz
| 10>
| 11>                          ****END OF INPUT****

CARTESIAN COORDINATES (ANGSTROEM)
---------------------------------
  H     -0.950072   -1.999583   -0.570895
  S     -1.419670    0.205811    0.879571
  B      0.060774    0.787722    1.934991
  O     -0.571505   -0.086040   -2.411477
  Mg     0.319109    2.163362   -0.013702
  H     -0.648423   -0.952421   -1.962047
  H     -0.706245   -2.248046    1.443553
  H     -0.086140    1.276735    3.011181
  Si     1.522985   -0.175266    0.996501
  H      0.362430    0.173518   -2.225443
  B     -0.639880   -1.520081    0.497766
  Li    -1.722856    1.170757   -1.517233
  F     -0.969175    2.754512   -1.201107
  H      2.597656   -1.019071    1.582610
  H      0.671030   -1.378027    0.291909
  S      2.179982    0.846117   -0.736178

 Total Charge           Charge          ....    0
 Multiplicity           Mult            ....    2
 Number of Electrons    NEL             ....   95
 Basis Dimension        Dim             ....  155

ORBITAL ENERGIES
----------------
                 SPIN UP ORBITALS
  NO   OCC          E(Eh)            E(eV)
   0   1.0000     -89.584392     -2437.7152
   1   1.0000     -89.561998     -2437.1059
   2   1.0000     -66.784324     -1817.2938
   3   1.0000     -47.386525     -1289.4529
   4   1.0000     -25.045630      -681.5262
   5   1.0000     -19.537587      -531.6448
   6   1.0000      -8.221891      -223.7290
   7   1.0000      -8.200722      -223.1530
   8   1.0000      -6.974924      -189.7973
   9   1.0000      -6.967713      -189.6011
  10   1.0000      -6.111438      -166.3007
  11   1.0000      -6.109243      -166.2410
  12   1.0000      -6.108195      -166.2124
  13   1.0000      -6.090301      -165.7255
  14   1.0000      -6.087417      -165.6470
  15   1.0000      -6.086606      -165.6250
  16   1.0000      -5.557361      -151.2235
  17   1.0000      -3.851518      -104.8051
  18   1.0000      -3.847834      -104.7049
  19   1.0000      -3.844908      -104.6253
  20   1.0000      -3.336857       -90.8005
  21   1.0000      -2.104131       -57.2563
  22   1.0000      -2.021686       -55.0129
  23   1.0000      -2.020147       -54.9710
  24   1.0000      -2.018587       -54.9286
  25   1.0000      -1.234390       -33.5894
  26   1.0000      -1.154206       -31.4075
  27   1.0000      -0.824980       -22.4489
  28   1.0000      -0.777235       -21.1496
  29   1.0000      -0.640035       -17.4162
  30   1.0000      -0.622247       -16.9322
  31   1.0000      -0.590997       -16.0818
  32   1.0000      -0.516471       -14.0539
  33   1.0000      -0.502131       -13.6637
  34   1.0000      -0.488353       -13.2888
  35   1.0000      -0.474821       -12.9205
  36   1.0000      -0.457377       -12.4459
  37   1.0000      -0.452350       -12.3091
  38   1.0000      -0.439142       -11.9496
  39   1.0000      -0.424124       -11.5410
  40   1.0000      -0.415736       -11.3127
  41   1.0000      -0.385109       -10.4794
  42   1.0000      -0.377052       -10.2601
  43   1.0000      -0.355909        -9.6848
  44   1.0000      -0.319178        -8.6853
  45   1.0000      -0.310432        -8.4473
  46   1.0000      -0.303050        -8.2464
  47   1.0000      -0.226313        -6.1583
  48   0.0000      -0.031567        -0.8590
  49   0.0000      -0.018385        -0.5003
  50   0.0000      -0.000030        -0.0008
  51   0.0000       0.028880         0.7859
  52   0.0000       0.046199         1.2571

                 SPIN DOWN ORBITALS
  NO   OCC          E(Eh)            E(eV)
   0   1.0000     -89.583743     -2437.6976
   1   1.0000     -89.561593     -2437.0948
   2   1.0000     -66.784468     -1817.2978
   3   1.0000     -47.385443     -1289.4235
   4   1.0000     -25.045570      -681.5246
   5   1.0000     -19.537542      -531.6436
   6   1.0000      -8.221219      -223.7107
   7   1.0000      -8.200293      -223.1413
   8   1.0000      -6.974694      -189.7911
   9   1.0000      -6.961540      -189.4331
  10   1.0000      -6.110447      -166.2737
  11   1.0000      -6.108931      -166.2325
  12   1.0000      -6.106352      -166.1623
  13   1.0000      -6.089648      -165.7078
  14   1.0000      -6.086632      -165.6257
  15   1.0000      -6.086137      -165.6122
  16   1.0000      -5.557553      -151.2287
  17   1.0000      -3.851695      -104.8099
  18   1.0000      -3.847854      -104.7054
  19   1.0000      -3.845220      -104.6337
  20   1.0000      -3.334918       -90.7477
  21   1.0000      -2.103950       -57.2514
  22   1.0000      -2.020620       -54.9839
  23   1.0000      -2.018044       -54.9138
  24   1.0000      -2.016593       -54.8743
  25   1.0000      -1.234248       -33.5856
  26   1.0000      -1.154112       -31.4050
  27   1.0000      -0.818103       -22.2617
  28   1.0000      -0.773890       -21.0586
  29   1.0000      -0.638380       -17.3712
  30   1.0000      -0.620837       -16.8938
  31   1.0000      -0.576071       -15.6757
  32   1.0000      -0.514647       -14.0042
  33   1.0000      -0.492646       -13.4056
  34   1.0000      -0.487107       -13.2549
  35   1.0000      -0.473660       -12.8889
  36   1.0000      -0.457200       -12.4411
  37   1.0000      -0.448426       -12.2023
  38   1.0000      -0.436801       -11.8860
  39   1.0000      -0.418747       -11.3947
  40   1.0000      -0.411367       -11.1939
  41   1.0000      -0.378991       -10.3129
  42   1.0000      -0.373226       -10.1560
  43   1.0000      -0.351391        -9.5618
  44   1.0000      -0.310680        -8.4540
  45   1.0000      -0.308660        -8.3991
  46   1.0000      -0.294136        -8.0038
  47   0.0000      -0.080926        -2.2021
  48   0.0000      -0.019280        -0.5246
  49   0.0000      -0.011851        -0.3225
  50   0.0000       0.003278         0.0892
  51   0.0000       0.037064         1.0086

MULLIKEN ATOMIC CHARGES AND SPIN POPULATIONS
--------------------------------------------
   0 H :    0.009200    0.007017
   1 S :   -0.342504    0.065984
   2 B :   -0.327932    0.653830
   3 O :   -0.841638    0.000751
   4 Mg:    0.459101    0.246181
   5 H :    0.466912   -0.000036
   6 H :    0.117185    0.000264
   7 H :    0.096215   -0.028048
   8 Si:    0.491064   -0.026310
   9 H :    0.480217   -0.000368
  10 B :   -0.278254    0.005896
  11 Li:    0.721585    0.014653
  12 F :   -0.560982    0.001158
  13 H :    0.028365    0.001719
  14 H :   -0.002253    0.012333
  15 S :   -0.516281    0.044974
Sum of atomic charges         :    0.0000000

LOEWDIN ATOMIC CHARGES AND SPIN POPULATIONS
-------------------------------------------
   0 H :   -0.005480    0.004779
   1 S :    0.273387    0.092975
   2 B :   -0.373632    0.556058
   3 O :   -0.481692    0.000959
   4 Mg:   -0.329670    0.238391
   5 H :    0.339800    0.000073
   6 H :    0.030662    0.000309
   7 H :    0.062153   -0.008552
   8 Si:    0.430882    0.034293
   9 H :    0.346864   -0.000157
  10 B :   -0.364456    0.013254
  11 Li:    0.312184    0.007079
  12 F :   -0.258935    0.001211
  13 H :   -0.009470    0.002665
  14 H :    0.054036    0.011072
  15 S :   -0.026632    0.045591

  Mayer bond orders larger than 0.100000
B(  0-H , 10-B ) :   0.9276 B(  1-S ,  2-B ) :   0.8829 B(  1-S ,  4-Mg) :   0.3467
B(  1-S , 10-B ) :   0.8475 B(  2-B ,  4-Mg) :   0.5222 B(  2-B ,  7-H ) :   0.9653
B(  2-B ,  8-Si) :   0.8744 B(  3-O ,  5-H ) :   0.7111 B(  3-O ,  9-H ) :   0.6876
B(  3-O , 11-Li) :   0.2330 B(  4-Mg,  8-Si) :   0.1031 B(  4-Mg, 12-F ) :   0.5991
B(  4-Mg, 15-S ) :   0.8260 B(  6-H , 10-B ) :   0.9590 B(  8-Si, 10-B ) :   0.1883
B(  8-Si, 13-H ) :   0.9238 B(  8-Si, 14-H ) :   0.4576 B(  8-Si, 15-S ) :   1.1384
B( 10-B , 14-H ) :   0.4841 B( 11-Li, 12-F ) :   0.2261

Dispersion correction           -0.011741550
FINAL SINGLE POINT ENERGY     -1520.671440001149

DIPOLE MOMENT
-------------
                                X             Y             Z
Electronic contribution:     -3.86238      11.86351      -2.73791
Nuclear contribution   :      3.35100     -11.34251       2.17594
                        -----------------------------------------
Total Dipole Moment    :     -0.51138       0.52100      -0.56197
                        -----------------------------------------
Magnitude (a.u.)       :      0.92128
Magnitude (Debye)      :      2.34171

Rotational constants in cm-1:     0.033489     0.030792     0.024988
Rotational constants in MHz :  1003.964711   923.124237   749.128964

                             ****ORCA TERMINATED NORMALLY****
TOTAL RUN TIME: 0 days 0 hours 2 minutes 18 seconds 530 msec
