                         Program Version 5.0.3 -  RELEASE  -
|  1> ! PBEh-3c def2/J TightSCF DefGrid3
|  2>
|  3> %maxcore 60000
|  4>
|  5> %pal
|  6> nprocs 4
|  7> end
|  8>
|  9> *xyzfile 0 1 methanol_st.xyz
| 10>
| 11>                          ****END OF INPUT****

CARTESIAN COORDINATES (ANGSTROEM)
---------------------------------
  O      0.164087    1.077152    0.000000
  C      0.131910   -0.331004    0.000000
  H      1.161215   -0.675887    0.000000
  H     -0.360564   -0.735551    0.885858
  H     -0.360564   -0.735551   -0.885858
  H     -0.736083    1.400840    0.000000

 Total Charge           Charge          ....    0
 Multiplicity           Mult            ....    1
 Number of Electrons    NEL             ....   18
 Basis Dimension        Dim             ....   38

ORBITAL ENERGIES
----------------

  NO   OCC          E(Eh)            E(eV)
   0   2.0000     -19.481870      -530.1286
   1   2.0000     -10.472072      -284.9596
   2   2.0000      -1.121850       -30.5271
   3   2.0000      -0.761216       -20.7137
   4   2.0000      -0.569749       -15.5036
   5   2.0000      -0.498476       -13.5642
   6   2.0000      -0.482078       -13.1180
   7   2.0000      -0.386794       -10.5252
   8   2.0000      -0.325011        -8.8440
   9   0.0000       0.132130         3.5954
  10   0.0000       0.195359         5.3160
  11   0.0000       0.220512         6.0004
  12   0.0000       0.234522         6.3817
  13   0.0000       0.242343         6.5945

MULLIKEN ATOMIC CHARGES
-----------------------
   0 O :   -0.625137
   1 C :   -0.369424
   2 H :    0.217146
   3 H :    0.181864
   4 H :    0.181864
   5 H :    0.413689
Sum of atomic charges:    0.0000000

LOEWDIN ATOMIC CHARGES
----------------------
   0 O :   -0.419741
   1 C :   -0.199349
   2 H :    0.121547
   3 H :    0.095869
   4 H :    0.095869
   5 H :    0.305806

  Mayer bond orders larger than 0.100000
B(  0-O ,  1-C ) :   1.0195 B(  0-O ,  5-H ) :   0.7961 B(  1-C ,  2-H ) :   0.9246
B(  1-C ,  3-H ) :   0.9183 B(  1-C ,  4-H ) :   0.9183

Dispersion correction           -0.001081312
FINAL SINGLE POINT ENERGY      -115.467203815677

DIPOLE MOMENT
-------------
                                X             Y             Z
Electronic contribution:      0.14297       1.80346       0.00000
Nuclear contribution   :     -0.73515      -2.15449       0.00000
                        -----------------------------------------
Total Dipole Moment    :     -0.59218      -0.35103       0.00000
                        -----------------------------------------
Magnitude (a.u.)       :      0.68840
Magnitude (Debye)      :      1.74979

Rotational constants in cm-1:     4.327779     0.837602     0.808241
Rotational constants in MHz : 129743.554167 25110.674163 24230.445851

                             ****ORCA TERMINATED NORMALLY****
TOTAL RUN TIME: 0 days 0 hours 0 minutes 44 seconds 684 msec
