                         Program Version 5.0.3 -  RELEASE  -
|  1> ! PBEh-3c def2/J TightSCF DefGrid3
|  2>
|  3> %maxcore 60000
|  4>
|  5> %pal
|  6> nprocs 4
|  7> end
|  8>
|  9> *xyzfile 0 1 H2C-C5-CH2.xyz
| 10>
| 11>                          ****END OF INPUT****

CARTESIAN COORDINATES (ANGSTROEM)
---------------------------------
  C     -2.556469   -0.178517   -0.028430
  C     -1.282212   -0.082449   -0.018224
  C     -0.000639    0.009989   -0.005679
  C      1.281148    0.099076    0.008786
  C      2.556096    0.184143    0.024794
  C      3.872335    0.271852    0.042238
  H      4.487695   -0.248472   -0.696183
  H      4.393628    0.867899    0.795640
  C     -3.871860   -0.278698   -0.037976
  H     -4.492757    0.421878   -0.602350
  H     -4.386966   -1.066701    0.517385

 Total Charge           Charge          ....    0
 Multiplicity           Mult            ....    1
 Number of Electrons    NEL             ....   46
 Basis Dimension        Dim             ....  113

ORBITAL ENERGIES
----------------

  NO   OCC          E(Eh)            E(eV)
   0   2.0000     -10.503824      -285.8236
   1   2.0000     -10.498190      -285.6703
   2   2.0000     -10.498061      -285.6668
   3   2.0000     -10.487741      -285.3860
   4   2.0000     -10.487647      -285.3834
   5   2.0000     -10.477012      -285.0940
   6   2.0000     -10.476961      -285.0926
   7   2.0000      -0.927282       -25.2326
   8   2.0000      -0.901305       -24.5258
   9   2.0000      -0.859730       -23.3945
  10   2.0000      -0.805182       -21.9101
  11   2.0000      -0.738745       -20.1023
  12   2.0000      -0.665219       -18.1015
  13   2.0000      -0.561250       -15.2724
  14   2.0000      -0.556948       -15.1553
  15   2.0000      -0.519571       -14.1383
  16   2.0000      -0.519558       -14.1379
  17   2.0000      -0.434442       -11.8218
  18   2.0000      -0.434435       -11.8216
  19   2.0000      -0.367758       -10.0072
  20   2.0000      -0.367740       -10.0067
  21   2.0000      -0.268455        -7.3050
  22   2.0000      -0.268430        -7.3044
  23   0.0000      -0.067190        -1.8283
  24   0.0000      -0.067164        -1.8276
  25   0.0000       0.079199         2.1551
  26   0.0000       0.079227         2.1559
  27   0.0000       0.151808         4.1309

MULLIKEN ATOMIC CHARGES
-----------------------
   0 C :    0.109418
   1 C :    0.064795
   2 C :    0.040521
   3 C :    0.064795
   4 C :    0.109357
   5 C :   -0.698054
   6 H :    0.251818
   7 H :    0.251819
   8 C :   -0.698093
   9 H :    0.251787
  10 H :    0.251838
Sum of atomic charges:   -0.0000000

LOEWDIN ATOMIC CHARGES
----------------------
   0 C :    0.011588
   1 C :   -0.067739
   2 C :    0.006872
   3 C :   -0.067741
   4 C :    0.011592
   5 C :   -0.268176
   6 H :    0.160438
   7 H :    0.160447
   8 C :   -0.268171
   9 H :    0.160430
  10 H :    0.160460

  Mayer bond orders larger than 0.100000
B(  0-C ,  1-C ) :   1.6074 B(  0-C ,  2-C ) :  -0.1517 B(  0-C ,  3-C ) :   0.1410
B(  0-C ,  8-C ) :   1.7939 B(  1-C ,  2-C ) :   1.5620 B(  1-C ,  3-C ) :  -0.1551
B(  1-C ,  4-C ) :   0.1410 B(  1-C ,  8-C ) :  -0.1430 B(  2-C ,  3-C ) :   1.5620
B(  2-C ,  4-C ) :  -0.1517 B(  2-C ,  5-C ) :   0.1498 B(  2-C ,  8-C ) :   0.1498
B(  3-C ,  4-C ) :   1.6074 B(  3-C ,  5-C ) :  -0.1430 B(  4-C ,  5-C ) :   1.7939
B(  5-C ,  6-H ) :   0.9050 B(  5-C ,  7-H ) :   0.9051 B(  8-C ,  9-H ) :   0.9050
B(  8-C , 10-H ) :   0.9051

Dispersion correction           -0.004220518
FINAL SINGLE POINT ENERGY      -268.324198062009

DIPOLE MOMENT
-------------
                                X             Y             Z
Electronic contribution:     -0.00194       0.02993      -0.01731
Nuclear contribution   :      0.00225      -0.03573       0.02039
                        -----------------------------------------
Total Dipole Moment    :      0.00031      -0.00579       0.00308
                        -----------------------------------------
Magnitude (a.u.)       :      0.00657
Magnitude (Debye)      :      0.01669

Rotational constants in cm-1:     4.799952     0.026294     0.026294
Rotational constants in MHz : 143898.929966   788.266013   788.261030

                             ****ORCA TERMINATED NORMALLY****
TOTAL RUN TIME: 0 days 0 hours 1 minutes 16 seconds 265 msec
