                         Program Version 5.0.3 -  RELEASE  -
|  1> ! PBEh-3c def2/J TightSCF DefGrid3
|  2>
|  3> %maxcore 60000
|  4>
|  5> %pal
|  6> nprocs 4
|  7> end
|  8>
|  9> *xyzfile 0 1 E5.xyz
| 10>
| 11>                          ****END OF INPUT****

CARTESIAN COORDINATES (ANGSTROEM)
---------------------------------
  C      0.000000    0.000000    0.852780
  C      0.000000    0.000000   -0.660215
  Cl    -0.850007   -1.472255   -1.282557
  Cl    -0.850007    1.472255   -1.282557
  Cl     1.700014    0.000000   -1.282557
  H      0.513136   -0.888778    1.218369
  H      0.513136    0.888778    1.218369
  H     -1.026272    0.000000    1.218369

 Total Charge           Charge          ....    0
 Multiplicity           Mult            ....    1
 Number of Electrons    NEL             ....   66
 Basis Dimension        Dim             ....   90

ORBITAL ENERGIES
----------------

  NO   OCC          E(Eh)            E(eV)
   0   2.0000    -102.319576     -2784.2572
   1   2.0000    -102.319573     -2784.2571
   2   2.0000    -102.319491     -2784.2549
   3   2.0000     -10.642318      -289.5922
   4   2.0000     -10.472262      -284.9647
   5   2.0000      -9.786880      -266.3146
   6   2.0000      -9.786880      -266.3145
   7   2.0000      -9.786836      -266.3133
   8   2.0000      -7.474927      -203.4031
   9   2.0000      -7.474926      -203.4031
  10   2.0000      -7.474895      -203.4022
  11   2.0000      -7.465894      -203.1573
  12   2.0000      -7.465877      -203.1568
  13   2.0000      -7.465876      -203.1568
  14   2.0000      -7.465749      -203.1534
  15   2.0000      -7.465749      -203.1534
  16   2.0000      -7.465740      -203.1531
  17   2.0000      -1.038183       -28.2504
  18   2.0000      -0.921388       -25.0722
  19   2.0000      -0.921388       -25.0722
  20   2.0000      -0.845953       -23.0196
  21   2.0000      -0.671239       -18.2653
  22   2.0000      -0.552845       -15.0437
  23   2.0000      -0.552844       -15.0437
  24   2.0000      -0.527803       -14.3623
  25   2.0000      -0.467084       -12.7100
  26   2.0000      -0.467084       -12.7100
  27   2.0000      -0.401394       -10.9225
  28   2.0000      -0.401393       -10.9224
  29   2.0000      -0.377932       -10.2840
  30   2.0000      -0.367391        -9.9972
  31   2.0000      -0.367390        -9.9972
  32   2.0000      -0.355553        -9.6751
  33   0.0000      -0.001755        -0.0478
  34   0.0000       0.045850         1.2476
  35   0.0000       0.045851         1.2477
  36   0.0000       0.160980         4.3805
  37   0.0000       0.179294         4.8788

MULLIKEN ATOMIC CHARGES
-----------------------
   0 C :   -0.573588
   1 C :   -0.156438
   2 Cl:   -0.015889
   3 Cl:   -0.015889
   4 Cl:   -0.015885
   5 H :    0.259234
   6 H :    0.259234
   7 H :    0.259221
Sum of atomic charges:   -0.0000000

LOEWDIN ATOMIC CHARGES
----------------------
   0 C :   -0.387788
   1 C :   -0.214926
   2 Cl:    0.048448
   3 Cl:    0.048448
   4 Cl:    0.048452
   5 H :    0.152456
   6 H :    0.152456
   7 H :    0.152452

  Mayer bond orders larger than 0.100000
B(  0-C ,  1-C ) :   0.8918 B(  0-C ,  5-H ) :   0.8972 B(  0-C ,  6-H ) :   0.8972
B(  0-C ,  7-H ) :   0.8973 B(  1-C ,  2-Cl) :   1.0172 B(  1-C ,  3-Cl) :   1.0172
B(  1-C ,  4-Cl) :   1.0172

Dispersion correction           -0.004468711
FINAL SINGLE POINT ENERGY     -1456.947627746429

DIPOLE MOMENT
-------------
                                X             Y             Z
Electronic contribution:      0.00002      -0.00000      -6.63410
Nuclear contribution   :     -0.00000       0.00000       7.40859
                        -----------------------------------------
Total Dipole Moment    :      0.00002      -0.00000       0.77449
                        -----------------------------------------
Magnitude (a.u.)       :      0.77449
Magnitude (Debye)      :      1.96859

Rotational constants in cm-1:     0.076207     0.076207     0.054280
Rotational constants in MHz :  2284.635963  2284.635896  1627.276977

                             ****ORCA TERMINATED NORMALLY****
TOTAL RUN TIME: 0 days 0 hours 1 minutes 21 seconds 538 msec
