                         Program Version 5.0.3 -  RELEASE  -
|  1> ! PBEh-3c def2/J TightSCF DefGrid3
|  2>
|  3> %maxcore 60000
|  4>
|  5> %pal
|  6> nprocs 4
|  7> end
|  8>
|  9> *xyzfile 0 2 P39.xyz
| 10>
| 11>                          ****END OF INPUT****

CARTESIAN COORDINATES (ANGSTROEM)
---------------------------------
  C     -0.869778   -1.240141    0.043131
  S     -0.654055    0.375472   -0.608961
  O     -1.585541    1.346851    0.095526
  C      1.065281    0.698065    0.007071
  H     -1.846879   -1.460710    0.451190
  H     -0.230575   -2.031005   -0.330383
  H      1.742289   -0.056661   -0.392208
  H      1.335251    1.686566   -0.360136
  H      1.044007    0.681564    1.094770

 Total Charge           Charge          ....    0
 Multiplicity           Mult            ....    2
 Number of Electrons    NEL             ....   41
 Basis Dimension        Dim             ....   73

ORBITAL ENERGIES
----------------
                 SPIN UP ORBITALS
  NO   OCC          E(Eh)            E(eV)
   0   1.0000     -89.707006     -2441.0517
   1   1.0000     -19.446311      -529.1610
   2   1.0000     -10.488126      -285.3964
   3   1.0000     -10.476626      -285.0835
   4   1.0000      -8.331472      -226.7109
   5   1.0000      -6.221687      -169.3007
   6   1.0000      -6.220947      -169.2806
   7   1.0000      -6.216408      -169.1571
   8   1.0000      -1.104467       -30.0541
   9   1.0000      -0.888068       -24.1656
  10   1.0000      -0.810022       -22.0418
  11   1.0000      -0.676700       -18.4140
  12   1.0000      -0.538762       -14.6605
  13   1.0000      -0.529443       -14.4069
  14   1.0000      -0.515724       -14.0336
  15   1.0000      -0.477926       -13.0050
  16   1.0000      -0.466372       -12.6906
  17   1.0000      -0.424318       -11.5463
  18   1.0000      -0.326569        -8.8864
  19   1.0000      -0.321475        -8.7478
  20   1.0000      -0.261512        -7.1161
  21   0.0000       0.069823         1.9000
  22   0.0000       0.092906         2.5281
  23   0.0000       0.118661         3.2289
  24   0.0000       0.138364         3.7651
  25   0.0000       0.180575         4.9137

                 SPIN DOWN ORBITALS
  NO   OCC          E(Eh)            E(eV)
   0   1.0000     -89.706802     -2441.0462
   1   1.0000     -19.446091      -529.1550
   2   1.0000     -10.474537      -285.0266
   3   1.0000     -10.473140      -284.9886
   4   1.0000      -8.331184      -226.7030
   5   1.0000      -6.221748      -169.3024
   6   1.0000      -6.221419      -169.2934
   7   1.0000      -6.215109      -169.1217
   8   1.0000      -1.102507       -30.0007
   9   1.0000      -0.875028       -23.8107
  10   1.0000      -0.787332       -21.4244
  11   1.0000      -0.659409       -17.9434
  12   1.0000      -0.530080       -14.4242
  13   1.0000      -0.523743       -14.2518
  14   1.0000      -0.510325       -13.8867
  15   1.0000      -0.468928       -12.7602
  16   1.0000      -0.460500       -12.5308
  17   1.0000      -0.416314       -11.3285
  18   1.0000      -0.319378        -8.6907
  19   1.0000      -0.279782        -7.6132
  20   0.0000      -0.065502        -1.7824
  21   0.0000       0.074354         2.0233
  22   0.0000       0.105204         2.8628
  23   0.0000       0.130361         3.5473
  24   0.0000       0.144896         3.9428

MULLIKEN ATOMIC CHARGES AND SPIN POPULATIONS
--------------------------------------------
   0 C :   -0.585300    1.011636
   1 S :    0.726077    0.011425
   2 O :   -0.686104    0.006850
   3 C :   -0.775850    0.071289
   4 H :    0.284269   -0.053924
   5 H :    0.243661   -0.048037
   6 H :    0.239516   -0.003274
   7 H :    0.272476    0.001705
   8 H :    0.281255    0.002330
Sum of atomic charges         :    0.0000000

LOEWDIN ATOMIC CHARGES AND SPIN POPULATIONS
-------------------------------------------
   0 C :   -0.425047    0.917205
   1 S :    0.817658    0.058079
   2 O :   -0.651166    0.006599
   3 C :   -0.482164    0.069828
   4 H :    0.158017   -0.026230
   5 H :    0.139948   -0.024238
   6 H :    0.139557   -0.002068
   7 H :    0.149700    0.000481
   8 H :    0.153498    0.000344

  Mayer bond orders larger than 0.100000
B(  0-C ,  1-S ) :   1.0342 B(  0-C ,  4-H ) :   0.8917 B(  0-C ,  5-H ) :   0.8806
B(  1-S ,  2-O ) :   1.5214 B(  1-S ,  3-C ) :   0.8720 B(  3-C ,  6-H ) :   0.8933
B(  3-C ,  7-H ) :   0.8973 B(  3-C ,  8-H ) :   0.8872

Dispersion correction           -0.003479552
FINAL SINGLE POINT ENERGY      -551.733838038726

DIPOLE MOMENT
-------------
                                X             Y             Z
Electronic contribution:     -3.30267       1.63368      -1.72855
Nuclear contribution   :      4.45574      -2.66795       1.48000
                        -----------------------------------------
Total Dipole Moment    :      1.15307      -1.03427      -0.24856
                        -----------------------------------------
Magnitude (a.u.)       :      1.56878
Magnitude (Debye)      :      3.98752

Rotational constants in cm-1:     0.244388     0.229486     0.138028
Rotational constants in MHz :  7326.563879  6879.823074  4137.975489

                             ****ORCA TERMINATED NORMALLY****
TOTAL RUN TIME: 0 days 0 hours 3 minutes 23 seconds 271 msec
