                         Program Version 5.0.3 -  RELEASE  -
|  1> ! PBEh-3c def2/J TightSCF DefGrid3
|  2>
|  3> %maxcore 60000
|  4>
|  5> %pal
|  6> nprocs 4
|  7> end
|  8>
|  9> *xyzfile 0 1 r7.xyz
| 10>
| 11>                          ****END OF INPUT****

CARTESIAN COORDINATES (ANGSTROEM)
---------------------------------
  C     -0.839001   -0.554758    0.124223
  C      0.106422   -1.708008   -0.220893
  C     -0.275509    0.571422   -0.757118
  C      1.247206    0.434256   -0.587253
  C      1.503294   -1.057744   -0.268133
  C     -0.797224   -0.226971    1.612764
  C     -0.800643    1.968192   -0.472224
  H     -1.868062   -0.787099   -0.158743
  H      0.047486   -2.533102    0.489117
  H     -0.151985   -2.101498   -1.205529
  H     -0.524556    0.310999   -1.790612
  H      1.778606    0.768064   -1.477474
  H      1.582397    1.067916    0.235319
  H      2.140019   -1.534779   -1.010674
  H      2.006695   -1.162158    0.691887
  H      0.208194    0.050011    1.932178
  H     -1.103081   -1.093019    2.199613
  H     -1.464471    0.596494    1.863254
  H     -0.527149    2.290482    0.532257
  H     -1.886986    2.011656   -0.558094
  H     -0.381653    2.689645   -1.173867

 Total Charge           Charge          ....    0
 Multiplicity           Mult            ....    1
 Number of Electrons    NEL             ....   56
 Basis Dimension        Dim             ....  133

ORBITAL ENERGIES
----------------

  NO   OCC          E(Eh)            E(eV)
   0   2.0000     -10.431360      -283.8517
   1   2.0000     -10.430960      -283.8409
   2   2.0000     -10.423997      -283.6514
   3   2.0000     -10.422563      -283.6124
   4   2.0000     -10.422331      -283.6061
   5   2.0000     -10.417524      -283.4752
   6   2.0000     -10.417239      -283.4675
   7   2.0000      -0.937983       -25.5238
   8   2.0000      -0.826844       -22.4996
   9   2.0000      -0.818728       -22.2787
  10   2.0000      -0.746736       -20.3197
  11   2.0000      -0.718381       -19.5482
  12   2.0000      -0.626403       -17.0453
  13   2.0000      -0.597175       -16.2500
  14   2.0000      -0.551686       -15.0121
  15   2.0000      -0.514530       -14.0011
  16   2.0000      -0.501821       -13.6553
  17   2.0000      -0.467553       -12.7228
  18   2.0000      -0.451804       -12.2942
  19   2.0000      -0.442023       -12.0281
  20   2.0000      -0.429794       -11.6953
  21   2.0000      -0.421498       -11.4695
  22   2.0000      -0.379179       -10.3180
  23   2.0000      -0.370962       -10.0944
  24   2.0000      -0.365354        -9.9418
  25   2.0000      -0.359032        -9.7698
  26   2.0000      -0.353308        -9.6140
  27   2.0000      -0.345289        -9.3958
  28   0.0000       0.122193         3.3250
  29   0.0000       0.143183         3.8962
  30   0.0000       0.168434         4.5833
  31   0.0000       0.181467         4.9380
  32   0.0000       0.191634         5.2146

MULLIKEN ATOMIC CHARGES
-----------------------
   0 C :   -0.233671
   1 C :   -0.423028
   2 C :   -0.210863
   3 C :   -0.427092
   4 C :   -0.438206
   5 C :   -0.651366
   6 C :   -0.645122
   7 H :    0.215391
   8 H :    0.216376
   9 H :    0.215987
  10 H :    0.212957
  11 H :    0.222084
  12 H :    0.209362
  13 H :    0.221370
  14 H :    0.217153
  15 H :    0.212324
  16 H :    0.220303
  17 H :    0.222106
  18 H :    0.209844
  19 H :    0.214628
  20 H :    0.219464
Sum of atomic charges:   -0.0000000

LOEWDIN ATOMIC CHARGES
----------------------
   0 C :   -0.154978
   1 C :   -0.234698
   2 C :   -0.153063
   3 C :   -0.238994
   4 C :   -0.244756
   5 C :   -0.355743
   6 C :   -0.354643
   7 H :    0.120463
   8 H :    0.122146
   9 H :    0.122383
  10 H :    0.120989
  11 H :    0.125874
  12 H :    0.120650
  13 H :    0.125235
  14 H :    0.123149
  15 H :    0.124588
  16 H :    0.127343
  17 H :    0.126782
  18 H :    0.123889
  19 H :    0.125596
  20 H :    0.127788

  Mayer bond orders larger than 0.100000
B(  0-C ,  1-C ) :   0.9781 B(  0-C ,  2-C ) :   0.9638 B(  0-C ,  5-C ) :   0.9813
B(  0-C ,  7-H ) :   0.9216 B(  1-C ,  4-C ) :   0.9681 B(  1-C ,  8-H ) :   0.9310
B(  1-C ,  9-H ) :   0.9267 B(  2-C ,  3-C ) :   0.9661 B(  2-C ,  6-C ) :   0.9980
B(  2-C , 10-H ) :   0.9143 B(  3-C ,  4-C ) :   0.9655 B(  3-C , 11-H ) :   0.9306
B(  3-C , 12-H ) :   0.9281 B(  4-C , 13-H ) :   0.9330 B(  4-C , 14-H ) :   0.9309
B(  5-C , 15-H ) :   0.9259 B(  5-C , 16-H ) :   0.9288 B(  5-C , 17-H ) :   0.9272
B(  6-C , 18-H ) :   0.9250 B(  6-C , 19-H ) :   0.9308 B(  6-C , 20-H ) :   0.9296

Dispersion correction           -0.011227855
FINAL SINGLE POINT ENERGY      -274.586130940937

DIPOLE MOMENT
-------------
                                X             Y             Z
Electronic contribution:      0.32702      -1.39390      -1.41029
Nuclear contribution   :     -0.34836       1.38241       1.37041
                        -----------------------------------------
Total Dipole Moment    :     -0.02133      -0.01149      -0.03988
                        -----------------------------------------
Magnitude (a.u.)       :      0.04666
Magnitude (Debye)      :      0.11861

Rotational constants in cm-1:     0.115321     0.085378     0.062915
Rotational constants in MHz :  3457.240126  2559.562138  1886.151523

                             ****ORCA TERMINATED NORMALLY****
TOTAL RUN TIME: 0 days 0 hours 1 minutes 32 seconds 76 msec
