                         Program Version 5.0.3 -  RELEASE  -
|  1> ! PBEh-3c def2/J TightSCF DefGrid3
|  2>
|  3> %maxcore 60000
|  4>
|  5> %pal
|  6> nprocs 4
|  7> end
|  8>
|  9> *xyzfile 0 1 C2H5CO2CH3.xyz
| 10>
| 11>                          ****END OF INPUT****

CARTESIAN COORDINATES (ANGSTROEM)
---------------------------------
  C      1.998606   -0.771516   -0.870144
  H      2.584107   -1.700099   -0.904814
  H      2.617511    0.012116   -0.414656
  H      1.783747   -0.461134   -1.901228
  C      0.711388   -0.984173   -0.078950
  H      0.925532   -1.328906    0.946218
  H      0.084462   -1.772255   -0.524486
  C     -0.130642    0.271004    0.038325
  O      0.189712    1.382429   -0.333352
  O     -1.323150   -0.004183    0.638025
  C     -2.193689    1.135109    0.814796
  H     -3.092363    0.742967    1.301161
  H     -1.712285    1.894661    1.444721
  H     -2.442937    1.583979   -0.155616

 Total Charge           Charge          ....    0
 Multiplicity           Mult            ....    1
 Number of Electrons    NEL             ....   48
 Basis Dimension        Dim             ....  106

ORBITAL ENERGIES
----------------

  NO   OCC          E(Eh)            E(eV)
   0   2.0000     -19.538994      -531.6831
   1   2.0000     -19.483920      -530.1844
   2   2.0000     -10.576574      -287.8032
   3   2.0000     -10.493164      -285.5335
   4   2.0000     -10.456550      -284.5372
   5   2.0000     -10.433130      -283.8999
   6   2.0000      -1.208127       -32.8748
   7   2.0000      -1.118164       -30.4268
   8   2.0000      -0.878073       -23.8936
   9   2.0000      -0.804734       -21.8979
  10   2.0000      -0.719046       -19.5662
  11   2.0000      -0.625449       -17.0193
  12   2.0000      -0.568993       -15.4831
  13   2.0000      -0.552192       -15.0259
  14   2.0000      -0.537161       -14.6169
  15   2.0000      -0.507648       -13.8138
  16   2.0000      -0.487987       -13.2788
  17   2.0000      -0.441312       -12.0087
  18   2.0000      -0.432652       -11.7731
  19   2.0000      -0.427227       -11.6254
  20   2.0000      -0.409902       -11.1540
  21   2.0000      -0.398128       -10.8336
  22   2.0000      -0.355885        -9.6841
  23   2.0000      -0.331431        -9.0187
  24   0.0000       0.045236         1.2309
  25   0.0000       0.141841         3.8597
  26   0.0000       0.152692         4.1550
  27   0.0000       0.174098         4.7374
  28   0.0000       0.196313         5.3420

MULLIKEN ATOMIC CHARGES
-----------------------
   0 C :   -0.636038
   1 H :    0.218657
   2 H :    0.234023
   3 H :    0.228982
   4 C :   -0.549542
   5 H :    0.252493
   6 H :    0.251331
   7 C :    0.582512
   8 O :   -0.401397
   9 O :   -0.467312
  10 C :   -0.390445
  11 H :    0.224646
  12 H :    0.225756
  13 H :    0.226335
Sum of atomic charges:   -0.0000000

LOEWDIN ATOMIC CHARGES
----------------------
   0 C :   -0.357398
   1 H :    0.128562
   2 H :    0.137941
   3 H :    0.135321
   4 C :   -0.278794
   5 H :    0.151894
   6 H :    0.149840
   7 C :    0.154138
   8 O :   -0.226670
   9 O :   -0.197591
  10 C :   -0.178428
  11 H :    0.127402
  12 H :    0.126732
  13 H :    0.127050

  Mayer bond orders larger than 0.100000
B(  0-C ,  1-H ) :   0.9262 B(  0-C ,  2-H ) :   0.9228 B(  0-C ,  3-H ) :   0.9260
B(  0-C ,  4-C ) :   0.9793 B(  4-C ,  5-H ) :   0.9006 B(  4-C ,  6-H ) :   0.9018
B(  4-C ,  7-C ) :   0.9275 B(  7-C ,  8-O ) :   2.0108 B(  7-C ,  9-O ) :   1.0875
B(  9-O , 10-C ) :   0.8994 B( 10-C , 11-H ) :   0.9228 B( 10-C , 12-H ) :   0.9133
B( 10-C , 13-H ) :   0.9130

Dispersion correction           -0.005324764
FINAL SINGLE POINT ENERGY      -307.041937505488

DIPOLE MOMENT
-------------
                                X             Y             Z
Electronic contribution:     -2.11655       1.89023       0.76307
Nuclear contribution   :      1.77501      -2.38274      -0.49159
                        -----------------------------------------
Total Dipole Moment    :     -0.34155      -0.49251       0.27148
                        -----------------------------------------
Magnitude (a.u.)       :      0.65797
Magnitude (Debye)      :      1.67241

Rotational constants in cm-1:     0.313394     0.070697     0.059668
Rotational constants in MHz :  9395.328113  2119.443143  1788.804449

                             ****ORCA TERMINATED NORMALLY****
TOTAL RUN TIME: 0 days 0 hours 1 minutes 29 seconds 209 msec
