                         Program Version 5.0.3 -  RELEASE  -
|  1> ! PBEh-3c def2/J TightSCF DefGrid3
|  2>
|  3> %maxcore 60000
|  4>
|  5> %pal
|  6> nprocs 4
|  7> end
|  8>
|  9> *xyzfile 0 1 6b.xyz
| 10>
| 11>                          ****END OF INPUT****

CARTESIAN COORDINATES (ANGSTROEM)
---------------------------------
  P      0.017200   -1.940565    0.000000
  H     -0.803910   -1.567187    1.081384
  H     -0.803910   -1.567187   -1.081384
  B     -0.017200   -3.805403    0.000000
  H      0.048814   -4.392872    1.033706
  H      0.048814   -4.392872   -1.033706

 Total Charge           Charge          ....    0
 Multiplicity           Mult            ....    1
 Number of Electrons    NEL             ....   24
 Basis Dimension        Dim             ....   41

ORBITAL ENERGIES
----------------

  NO   OCC          E(Eh)            E(eV)
   0   2.0000     -77.728722     -2115.1061
   1   2.0000      -6.981525      -189.9770
   2   2.0000      -6.809755      -185.3029
   3   2.0000      -4.900519      -133.3499
   4   2.0000      -4.899585      -133.3245
   5   2.0000      -4.898867      -133.3049
   6   2.0000      -0.727600       -19.7990
   7   2.0000      -0.556169       -15.1341
   8   2.0000      -0.467123       -12.7111
   9   2.0000      -0.396877       -10.7996
  10   2.0000      -0.396176       -10.7805
  11   2.0000      -0.304215        -8.2781
  12   0.0000      -0.041701        -1.1348
  13   0.0000       0.074443         2.0257
  14   0.0000       0.117654         3.2015
  15   0.0000       0.148974         4.0538
  16   0.0000       0.217802         5.9267

MULLIKEN ATOMIC CHARGES
-----------------------
   0 P :   -0.213548
   1 H :    0.103371
   2 H :    0.103371
   3 B :   -0.120110
   4 H :    0.063457
   5 H :    0.063457
Sum of atomic charges:    0.0000000

LOEWDIN ATOMIC CHARGES
----------------------
   0 P :    0.053804
   1 H :    0.055882
   2 H :    0.055882
   3 B :   -0.222021
   4 H :    0.028227
   5 H :    0.028227

  Mayer bond orders larger than 0.100000
B(  0-P ,  1-H ) :   0.9397 B(  0-P ,  2-H ) :   0.9397 B(  0-P ,  3-B ) :   1.2645
B(  3-B ,  4-H ) :   0.9798 B(  3-B ,  5-H ) :   0.9798

Dispersion correction           -0.001595008
FINAL SINGLE POINT ENERGY      -368.105379255455

DIPOLE MOMENT
-------------
                                X             Y             Z
Electronic contribution:      1.00962       1.45305      -0.00000
Nuclear contribution   :     -1.36523      -1.37320       0.00000
                        -----------------------------------------
Total Dipole Moment    :     -0.35561       0.07984      -0.00000
                        -----------------------------------------
Magnitude (a.u.)       :      0.36446
Magnitude (Debye)      :      0.92639

Rotational constants in cm-1:     2.923497     0.439614     0.405197
Rotational constants in MHz : 87644.229590 13179.300075 12147.502910

                             ****ORCA TERMINATED NORMALLY****
TOTAL RUN TIME: 0 days 0 hours 1 minutes 5 seconds 995 msec
