                         Program Version 5.0.3 -  RELEASE  -
|  1> ! PBEh-3c def2/J TightSCF DefGrid3
|  2>
|  3> %maxcore 60000
|  4>
|  5> %pal
|  6> nprocs 4
|  7> end
|  8>
|  9> *xyzfile 0 1 1O.xyz
| 10>
| 11>                          ****END OF INPUT****

CARTESIAN COORDINATES (ANGSTROEM)
---------------------------------
  O     -1.867767   -0.068074    0.000000
  H     -0.899387   -0.043821    0.000000
  H     -2.134507    0.850733    0.000000
  C      1.193110   -0.146576    0.000000
  H      1.854276   -0.296131   -0.868928
  H      1.854276   -0.296131    0.868928

 Total Charge           Charge          ....    0
 Multiplicity           Mult            ....    1
 Number of Electrons    NEL             ....   18
 Basis Dimension        Dim             ....   38

ORBITAL ENERGIES
----------------

  NO   OCC          E(Eh)            E(eV)
   0   2.0000     -19.427272      -528.6430
   1   2.0000     -10.533444      -286.6296
   2   2.0000      -1.057134       -28.7661
   3   2.0000      -0.771352       -20.9896
   4   2.0000      -0.540973       -14.7206
   5   2.0000      -0.493022       -13.4158
   6   2.0000      -0.398441       -10.8421
   7   2.0000      -0.322215        -8.7679
   8   2.0000      -0.314889        -8.5686
   9   0.0000      -0.113679        -3.0934
  10   0.0000       0.148388         4.0378
  11   0.0000       0.189352         5.1525
  12   0.0000       0.189548         5.1579
  13   0.0000       0.315983         8.5983

MULLIKEN ATOMIC CHARGES
-----------------------
   0 O :   -0.868625
   1 H :    0.461007
   2 H :    0.388108
   3 C :   -0.411198
   4 H :    0.215354
   5 H :    0.215354
Sum of atomic charges:    0.0000000

LOEWDIN ATOMIC CHARGES
----------------------
   0 O :   -0.634074
   1 H :    0.286946
   2 H :    0.287964
   3 C :   -0.175709
   4 H :    0.117436
   5 H :    0.117436

  Mayer bond orders larger than 0.100000
B(  0-O ,  1-H ) :   0.7335 B(  0-O ,  2-H ) :   0.8299 B(  3-C ,  4-H ) :   0.9095
B(  3-C ,  5-H ) :   0.9095

Dispersion correction           -0.000923749
FINAL SINGLE POINT ENERGY      -115.301436428566

DIPOLE MOMENT
-------------
                                X             Y             Z
Electronic contribution:     -0.78562      -0.04180      -0.00000
Nuclear contribution   :      2.35396       0.50999       0.00000
                        -----------------------------------------
Total Dipole Moment    :      1.56834       0.46820      -0.00000
                        -----------------------------------------
Magnitude (a.u.)       :      1.63674
Magnitude (Debye)      :      4.16025

Rotational constants in cm-1:     7.265509     0.212387     0.210467
Rotational constants in MHz : 217814.484814  6367.208237  6309.648049

                             ****ORCA TERMINATED NORMALLY****
TOTAL RUN TIME: 0 days 0 hours 0 minutes 27 seconds 629 msec
