                         Program Version 5.0.3 -  RELEASE  -
|  1> ! PBEh-3c def2/J TightSCF DefGrid3
|  2>
|  3> %maxcore 60000
|  4>
|  5> %pal
|  6> nprocs 4
|  7> end
|  8>
|  9> *xyzfile 0 1 propylthiophene.xyz
| 10>
| 11>                          ****END OF INPUT****

CARTESIAN COORDINATES (ANGSTROEM)
---------------------------------
  C     -2.161170    0.584448   -0.389309
  C     -0.788124    0.567584   -0.511801
  C     -0.266366    1.892099   -0.663438
  C     -1.236470    2.864130   -0.653282
  S     -2.805539    2.181213   -0.457351
  H     -2.827726   -0.264787   -0.266305
  H      0.794083    2.113941   -0.782919
  H     -1.116497    3.938576   -0.755592
  C      0.057283   -0.678875   -0.467410
  H      0.747098   -0.685585   -1.329418
  H     -0.589300   -1.563057   -0.585723
  C      0.879399   -0.823528    0.827481
  H      1.524333    0.061938    0.948511
  H      0.191735   -0.817754    1.688605
  C      1.732687   -2.093249    0.846909
  H      2.445569   -2.108929    0.008166
  H      2.311723   -2.172952    1.777839
  H      1.107280   -2.995214    0.765038

 Total Charge           Charge          ....    0
 Multiplicity           Mult            ....    1
 Number of Electrons    NEL             ....   68
 Basis Dimension        Dim             ....  143

ORBITAL ENERGIES
----------------

  NO   OCC          E(Eh)            E(eV)
   0   2.0000     -89.612924     -2438.4916
   1   2.0000     -10.471901      -284.9549
   2   2.0000     -10.467366      -284.8315
   3   2.0000     -10.456363      -284.5321
   4   2.0000     -10.448507      -284.3183
   5   2.0000     -10.445700      -284.2419
   6   2.0000     -10.439164      -284.0641
   7   2.0000     -10.429159      -283.7918
   8   2.0000      -8.251995      -224.5482
   9   2.0000      -6.142228      -167.1385
  10   2.0000      -6.138761      -167.0442
  11   2.0000      -6.136623      -166.9860
  12   2.0000      -0.976571       -26.5739
  13   2.0000      -0.886749       -24.1297
  14   2.0000      -0.824030       -22.4230
  15   2.0000      -0.808926       -22.0120
  16   2.0000      -0.747882       -20.3509
  17   2.0000      -0.664754       -18.0889
  18   2.0000      -0.635027       -17.2800
  19   2.0000      -0.605933       -16.4883
  20   2.0000      -0.558440       -15.1959
  21   2.0000      -0.521236       -14.1836
  22   2.0000      -0.479854       -13.0575
  23   2.0000      -0.467338       -12.7169
  24   2.0000      -0.461784       -12.5658
  25   2.0000      -0.450962       -12.2713
  26   2.0000      -0.426729       -11.6119
  27   2.0000      -0.419550       -11.4165
  28   2.0000      -0.406680       -11.0663
  29   2.0000      -0.390669       -10.6306
  30   2.0000      -0.382355       -10.4044
  31   2.0000      -0.375739       -10.2244
  32   2.0000      -0.284565        -7.7434
  33   2.0000      -0.270684        -7.3657
  34   0.0000       0.013614         0.3705
  35   0.0000       0.080913         2.2018
  36   0.0000       0.087398         2.3782
  37   0.0000       0.134374         3.6565
  38   0.0000       0.150313         4.0902

MULLIKEN ATOMIC CHARGES
-----------------------
   0 C :   -0.511627
   1 C :    0.217725
   2 C :   -0.191862
   3 C :   -0.428659
   4 S :    0.220452
   5 H :    0.246022
   6 H :    0.219993
   7 H :    0.251402
   8 C :   -0.489150
   9 H :    0.220968
  10 H :    0.218702
  11 C :   -0.404572
  12 H :    0.211076
  13 H :    0.220473
  14 C :   -0.641259
  15 H :    0.208797
  16 H :    0.222178
  17 H :    0.209341
Sum of atomic charges:   -0.0000000

LOEWDIN ATOMIC CHARGES
----------------------
   0 C :   -0.312187
   1 C :   -0.082202
   2 C :   -0.175399
   3 C :   -0.299588
   4 S :    0.379007
   5 H :    0.145576
   6 H :    0.139963
   7 H :    0.146750
   8 C :   -0.224668
   9 H :    0.131288
  10 H :    0.130093
  11 C :   -0.240251
  12 H :    0.122151
  13 H :    0.126331
  14 C :   -0.362980
  15 H :    0.123459
  16 H :    0.128869
  17 H :    0.123789

  Mayer bond orders larger than 0.100000
B(  0-C ,  1-C ) :   1.4937 B(  0-C ,  4-S ) :   1.2069 B(  0-C ,  5-H ) :   0.9163
B(  1-C ,  2-C ) :   1.2539 B(  1-C ,  8-C ) :   0.9628 B(  2-C ,  3-C ) :   1.5476
B(  2-C ,  6-H ) :   0.9221 B(  3-C ,  4-S ) :   1.2133 B(  3-C ,  7-H ) :   0.9118
B(  8-C ,  9-H ) :   0.9156 B(  8-C , 10-H ) :   0.9236 B(  8-C , 11-C ) :   0.9638
B( 11-C , 12-H ) :   0.9198 B( 11-C , 13-H ) :   0.9182 B( 11-C , 14-C ) :   0.9901
B( 14-C , 15-H ) :   0.9290 B( 14-C , 16-H ) :   0.9304 B( 14-C , 17-H ) :   0.9289

Dispersion correction           -0.009738073
FINAL SINGLE POINT ENERGY      -669.898663353898

DIPOLE MOMENT
-------------
                                X             Y             Z
Electronic contribution:    -11.96840      11.00095      -3.22977
Nuclear contribution   :     12.29490     -11.18363       3.26721
                        -----------------------------------------
Total Dipole Moment    :      0.32650      -0.18269       0.03744
                        -----------------------------------------
Magnitude (a.u.)       :      0.37601
Magnitude (Debye)      :      0.95573

Rotational constants in cm-1:     0.177600     0.026740     0.024605
Rotational constants in MHz :  5324.318251   801.647307   737.652330

                             ****ORCA TERMINATED NORMALLY****
TOTAL RUN TIME: 0 days 0 hours 2 minutes 0 seconds 992 msec
