                         Program Version 5.0.3 -  RELEASE  -
|  1> ! PBEh-3c def2/J TightSCF DefGrid3
|  2>
|  3> %maxcore 60000
|  4>
|  5> %pal
|  6> nprocs 4
|  7> end
|  8>
|  9> *xyzfile 0 1 ts9.xyz
| 10>
| 11>                          ****END OF INPUT****

CARTESIAN COORDINATES (ANGSTROEM)
---------------------------------
  Si    -1.176506   -0.582129   -0.132495
  C      1.013769   -0.700358   -0.309843
  C      1.226720    0.614882    0.101853
  H      1.717833   -1.246448   -0.934858
  H      0.678431   -1.336375    0.516095
  C     -0.007429    1.247824    0.361901
  H      2.205922    1.082394    0.207407
  H     -0.489215    1.579078   -0.554143
  H     -0.085177    2.027411    1.120648
  H     -2.330023    0.192164   -0.653426
  H     -1.465862   -1.061728    1.237281
  H     -1.288462   -1.816714   -0.960419

 Total Charge           Charge          ....    0
 Multiplicity           Mult            ....    1
 Number of Electrons    NEL             ....   40
 Basis Dimension        Dim             ....   79

ORBITAL ENERGIES
----------------

  NO   OCC          E(Eh)            E(eV)
   0   2.0000     -66.737437     -1816.0180
   1   2.0000     -10.491362      -285.4845
   2   2.0000     -10.453513      -284.4545
   3   2.0000     -10.444116      -284.1988
   4   2.0000      -5.511300      -149.9701
   5   2.0000      -3.803612      -103.5015
   6   2.0000      -3.802288      -103.4655
   7   2.0000      -3.801147      -103.4345
   8   2.0000      -0.921832       -25.0843
   9   2.0000      -0.768144       -20.9023
  10   2.0000      -0.664157       -18.0726
  11   2.0000      -0.571854       -15.5609
  12   2.0000      -0.545233       -14.8365
  13   2.0000      -0.524335       -14.2679
  14   2.0000      -0.459590       -12.5061
  15   2.0000      -0.448244       -12.1973
  16   2.0000      -0.382843       -10.4177
  17   2.0000      -0.373872       -10.1736
  18   2.0000      -0.307248        -8.3606
  19   2.0000      -0.284676        -7.7464
  20   0.0000      -0.037939        -1.0324
  21   0.0000       0.052740         1.4351
  22   0.0000       0.111787         3.0419
  23   0.0000       0.133368         3.6291
  24   0.0000       0.150550         4.0967

MULLIKEN ATOMIC CHARGES
-----------------------
   0 Si:    0.231529
   1 C :   -0.707613
   2 C :   -0.020916
   3 H :    0.241030
   4 H :    0.293890
   5 C :   -0.720005
   6 H :    0.240879
   7 H :    0.284477
   8 H :    0.230865
   9 H :   -0.039954
  10 H :   -0.005345
  11 H :   -0.028835
Sum of atomic charges:    0.0000000

LOEWDIN ATOMIC CHARGES
----------------------
   0 Si:    0.196183
   1 C :   -0.385511
   2 C :   -0.050113
   3 H :    0.135539
   4 H :    0.191556
   5 C :   -0.404820
   6 H :    0.133207
   7 H :    0.179422
   8 H :    0.130584
   9 H :   -0.050636
  10 H :   -0.025552
  11 H :   -0.049860

  Mayer bond orders larger than 0.100000
B(  0-Si,  1-C ) :   0.5488 B(  0-Si,  5-C ) :   0.5487 B(  0-Si,  9-H ) :   0.9451
B(  0-Si, 10-H ) :   0.9518 B(  0-Si, 11-H ) :   0.9255 B(  1-C ,  2-C ) :   1.3682
B(  1-C ,  3-H ) :   0.9131 B(  1-C ,  4-H ) :   0.8101 B(  2-C ,  5-C ) :   1.3115
B(  2-C ,  6-H ) :   0.9050 B(  5-C ,  7-H ) :   0.8450 B(  5-C ,  8-H ) :   0.9166

Dispersion correction           -0.004934201
FINAL SINGLE POINT ENERGY      -407.858627489287

DIPOLE MOMENT
-------------
                                X             Y             Z
Electronic contribution:      0.98865       0.59976      -0.12268
Nuclear contribution   :     -0.17228      -0.20435       0.18292
                        -----------------------------------------
Total Dipole Moment    :      0.81637       0.39541       0.06023
                        -----------------------------------------
Magnitude (a.u.)       :      0.90909
Magnitude (Debye)      :      2.31071

Rotational constants in cm-1:     0.324471     0.163830     0.116683
Rotational constants in MHz :  9727.384820  4911.485849  3498.069757

                             ****ORCA TERMINATED NORMALLY****
TOTAL RUN TIME: 0 days 0 hours 1 minutes 16 seconds 900 msec
