                         Program Version 5.0.3 -  RELEASE  -
|  1> ! PBEh-3c def2/J TightSCF DefGrid3
|  2>
|  3> %maxcore 60000
|  4>
|  5> %pal
|  6> nprocs 4
|  7> end
|  8>
|  9> *xyzfile 0 1 teh2_2.xyz
| 10>
| 11>                          ****END OF INPUT****

CARTESIAN COORDINATES (ANGSTROEM)
---------------------------------
  Te     0.217602   -3.043796    0.000000
  H      0.266387   -1.410337    0.000000
  H     -1.414984   -2.992446    0.000000
  Te     0.217602    1.719521    0.000000
  H      1.505669    2.723840    0.000000
  H     -0.792276    3.003217    0.000000

 Total Charge           Charge          ....    0
 Multiplicity           Mult            ....    1
 Number of Electrons    NEL             ....   52
 Basis Dimension        Dim             ....   60

ORBITAL ENERGIES
----------------

  NO   OCC          E(Eh)            E(eV)
   0   2.0000      -6.511723      -177.1930
   1   2.0000      -6.506592      -177.0534
   2   2.0000      -4.605496      -125.3219
   3   2.0000      -4.601377      -125.2098
   4   2.0000      -4.600395      -125.1831
   5   2.0000      -4.596206      -125.0691
   6   2.0000      -4.589844      -124.8960
   7   2.0000      -4.584712      -124.7564
   8   2.0000      -1.716512       -46.7087
   9   2.0000      -1.713422       -46.6246
  10   2.0000      -1.711363       -46.5686
  11   2.0000      -1.708296       -46.4851
  12   2.0000      -1.702799       -46.3355
  13   2.0000      -1.699219       -46.2381
  14   2.0000      -1.697842       -46.2006
  15   2.0000      -1.697708       -46.1970
  16   2.0000      -1.694054       -46.0976
  17   2.0000      -1.692718       -46.0612
  18   2.0000      -0.725236       -19.7347
  19   2.0000      -0.719527       -19.5793
  20   2.0000      -0.446187       -12.1414
  21   2.0000      -0.443226       -12.0608
  22   2.0000      -0.391859       -10.6630
  23   2.0000      -0.372709       -10.1419
  24   2.0000      -0.272018        -7.4020
  25   2.0000      -0.265996        -7.2381
  26   0.0000      -0.001218        -0.0331
  27   0.0000       0.002359         0.0642
  28   0.0000       0.047444         1.2910
  29   0.0000       0.090417         2.4604
  30   0.0000       0.248350         6.7579

MULLIKEN ATOMIC CHARGES
-----------------------
   0 Te:   -0.174144
   1 H :    0.082826
   2 H :    0.091329
   3 Te:   -0.193854
   4 H :    0.096332
   5 H :    0.097511
Sum of atomic charges:   -0.0000000

LOEWDIN ATOMIC CHARGES
----------------------
   0 Te:   -0.112158
   1 H :    0.055870
   2 H :    0.058132
   3 Te:   -0.123167
   4 H :    0.060477
   5 H :    0.060845

  Mayer bond orders larger than 0.100000
B(  0-Te,  1-H ) :   0.9647 B(  0-Te,  2-H ) :   0.9725 B(  3-Te,  4-H ) :   0.9703
B(  3-Te,  5-H ) :   0.9694

Dispersion correction           -0.001588683
FINAL SINGLE POINT ENERGY      -538.452569133007

DIPOLE MOMENT
-------------
                                X             Y             Z
Electronic contribution:      1.86827      -5.65958      -0.00000
Nuclear contribution   :     -1.96838       5.98954       0.00000
                        -----------------------------------------
Total Dipole Moment    :     -0.10011       0.32996      -0.00000
                        -----------------------------------------
Magnitude (a.u.)       :      0.34482
Magnitude (Debye)      :      0.87645

Rotational constants in cm-1:     3.139732     0.011401     0.011359
Rotational constants in MHz : 94126.806911   341.782371   340.545821

                             ****ORCA TERMINATED NORMALLY****
TOTAL RUN TIME: 0 days 0 hours 1 minutes 15 seconds 337 msec
