                         Program Version 5.0.3 -  RELEASE  -
|  1> ! PBEh-3c def2/J TightSCF DefGrid3
|  2>
|  3> %maxcore 60000
|  4>
|  5> %pal
|  6> nprocs 4
|  7> end
|  8>
|  9> *xyzfile 0 1 B29.xyz
| 10>
| 11>                          ****END OF INPUT****

CARTESIAN COORDINATES (ANGSTROEM)
---------------------------------
  C      0.419805    1.910469    0.399249
  H      1.056541    1.910924    1.290856
  O      1.198991    2.096355   -0.778500
  C     -0.419805    0.638354    0.362827
  H     -1.080821    0.637279    1.235747
  H     -1.048622    0.677201   -0.529555
  C      0.419805   -0.638354    0.362827
  H      1.080821   -0.637279    1.235747
  H      1.048622   -0.677201   -0.529555
  H      1.867867    1.407601   -0.798033
  H     -0.228702    2.783073    0.456529
  C     -0.419805   -1.910469    0.399249
  H      0.228702   -2.783073    0.456529
  H     -1.056541   -1.910924    1.290856
  O     -1.198991   -2.096355   -0.778500
  H     -1.867867   -1.407601   -0.798033

 Total Charge           Charge          ....    0
 Multiplicity           Mult            ....    1
 Number of Electrons    NEL             ....   50
 Basis Dimension        Dim             ....  110

ORBITAL ENERGIES
----------------

  NO   OCC          E(Eh)            E(eV)
   0   2.0000     -19.486692      -530.2598
   1   2.0000     -19.486692      -530.2598
   2   2.0000     -10.484732      -285.3041
   3   2.0000     -10.484698      -285.3031
   4   2.0000     -10.441852      -284.1372
   5   2.0000     -10.441630      -284.1312
   6   2.0000      -1.124259       -30.5926
   7   2.0000      -1.122973       -30.5576
   8   2.0000      -0.887942       -24.1621
   9   2.0000      -0.804376       -21.8882
  10   2.0000      -0.718575       -19.5534
  11   2.0000      -0.658616       -17.9219
  12   2.0000      -0.580646       -15.8002
  13   2.0000      -0.574685       -15.6380
  14   2.0000      -0.513776       -13.9805
  15   2.0000      -0.513183       -13.9644
  16   2.0000      -0.509425       -13.8622
  17   2.0000      -0.469444       -12.7742
  18   2.0000      -0.441562       -12.0155
  19   2.0000      -0.411190       -11.1891
  20   2.0000      -0.411127       -11.1873
  21   2.0000      -0.390469       -10.6252
  22   2.0000      -0.367295        -9.9946
  23   2.0000      -0.330707        -8.9990
  24   2.0000      -0.324106        -8.8194
  25   0.0000       0.118187         3.2160
  26   0.0000       0.119418         3.2495
  27   0.0000       0.162961         4.4344
  28   0.0000       0.164272         4.4701
  29   0.0000       0.183014         4.9801

MULLIKEN ATOMIC CHARGES
-----------------------
   0 C :   -0.152605
   1 H :    0.177697
   2 O :   -0.623538
   3 C :   -0.455825
   4 H :    0.204177
   5 H :    0.215593
   6 C :   -0.455825
   7 H :    0.204177
   8 H :    0.215593
   9 H :    0.414854
  10 H :    0.219647
  11 C :   -0.152605
  12 H :    0.219647
  13 H :    0.177697
  14 O :   -0.623538
  15 H :    0.414854
Sum of atomic charges:   -0.0000000

LOEWDIN ATOMIC CHARGES
----------------------
   0 C :   -0.090641
   1 H :    0.097359
   2 O :   -0.411418
   3 C :   -0.272083
   4 H :    0.124191
   5 H :    0.124730
   6 C :   -0.272083
   7 H :    0.124191
   8 H :    0.124730
   9 H :    0.306090
  10 H :    0.121773
  11 C :   -0.090641
  12 H :    0.121773
  13 H :    0.097359
  14 O :   -0.411418
  15 H :    0.306090

  Mayer bond orders larger than 0.100000
B(  0-C ,  1-H ) :   0.9125 B(  0-C ,  2-O ) :   1.0236 B(  0-C ,  3-C ) :   0.9711
B(  0-C , 10-H ) :   0.9199 B(  2-O ,  9-H ) :   0.7891 B(  3-C ,  4-H ) :   0.9098
B(  3-C ,  5-H ) :   0.9075 B(  3-C ,  6-C ) :   0.9765 B(  6-C ,  7-H ) :   0.9098
B(  6-C ,  8-H ) :   0.9075 B(  6-C , 11-C ) :   0.9711 B( 11-C , 12-H ) :   0.9199
B( 11-C , 13-H ) :   0.9125 B( 11-C , 14-O ) :   1.0236 B( 14-O , 15-H ) :   0.7891

Dispersion correction           -0.006636927
FINAL SINGLE POINT ENERGY      -308.207059783550

DIPOLE MOMENT
-------------
                                X             Y             Z
Electronic contribution:      0.00000      -0.00000      -2.58337
Nuclear contribution   :     -0.00000       0.00000       3.42445
                        -----------------------------------------
Total Dipole Moment    :      0.00000      -0.00000       0.84108
                        -----------------------------------------
Magnitude (a.u.)       :      0.84108
Magnitude (Debye)      :      2.13786

Rotational constants in cm-1:     0.268497     0.050287     0.049235
Rotational constants in MHz :  8049.342784  1507.557097  1476.026906

                             ****ORCA TERMINATED NORMALLY****
TOTAL RUN TIME: 0 days 0 hours 1 minutes 33 seconds 582 msec
