                         Program Version 5.0.3 -  RELEASE  -
|  1> ! PBEh-3c def2/J TightSCF DefGrid3
|  2>
|  3> %maxcore 60000
|  4>
|  5> %pal
|  6> nprocs 4
|  7> end
|  8>
|  9> *xyzfile 0 1 03.xyz
| 10>
| 11>                          ****END OF INPUT****

CARTESIAN COORDINATES (ANGSTROEM)
---------------------------------
  C     -0.011370   -0.355405   -2.514007
  O      0.729167   -1.718865    2.031493
  H     -1.185288    0.870763    1.813878
  Li    -0.463679   -1.450307    0.760553
  Mg     0.685245    0.986758   -0.553183
  Al    -1.935563    0.240443   -0.749135
  C     -0.123012   -0.969845   -1.287995
  H      0.160729   -2.033252   -1.295864
  H     -1.778879    2.222843    0.864425
  H      0.261271   -0.826814   -3.458758
  F      2.320792    0.984943    0.297285
  S     -0.622027    1.320066   -2.594001
  C     -0.987570    1.462275    0.907923
  H      0.541673   -2.245708    2.817436
  Na     2.493454   -0.548482    1.775776
  H     -0.084942    2.060588    1.184173

 Total Charge           Charge          ....    0
 Multiplicity           Mult            ....    1
 Number of Electrons    NEL             ....   96
 Basis Dimension        Dim             ....  165

ORBITAL ENERGIES
----------------

  NO   OCC          E(Eh)            E(eV)
   0   2.0000     -89.565044     -2437.1888
   1   2.0000     -56.573577     -1539.4453
   2   2.0000     -47.348323     -1288.4134
   3   2.0000     -38.944132     -1059.7237
   4   2.0000     -25.025241      -680.9714
   5   2.0000     -19.418792      -528.4122
   6   2.0000     -10.485353      -285.3210
   7   2.0000     -10.430076      -283.8168
   8   2.0000     -10.412398      -283.3357
   9   2.0000      -8.202734      -223.2077
  10   2.0000      -6.092920      -165.7968
  11   2.0000      -6.089028      -165.6909
  12   2.0000      -6.088159      -165.6672
  13   2.0000      -4.306089      -117.1747
  14   2.0000      -2.792410       -75.9853
  15   2.0000      -2.793723       -76.0211
  16   2.0000      -2.793087       -76.0038
  17   2.0000      -3.299038       -89.7714
  18   2.0000      -2.384799       -64.8937
  19   2.0000      -2.060779       -56.0767
  20   2.0000      -1.983644       -53.9777
  21   2.0000      -1.983335       -53.9693
  22   2.0000      -1.981789       -53.9272
  23   2.0000      -1.262954       -34.3667
  24   2.0000      -1.260890       -34.3106
  25   2.0000      -1.258290       -34.2398
  26   2.0000      -1.206886       -32.8410
  27   2.0000      -0.994371       -27.0582
  28   2.0000      -0.890797       -24.2398
  29   2.0000      -0.755003       -20.5447
  30   2.0000      -0.743309       -20.2265
  31   2.0000      -0.604935       -16.4611
  32   2.0000      -0.523639       -14.2489
  33   2.0000      -0.472098       -12.8464
  34   2.0000      -0.466782       -12.7018
  35   2.0000      -0.453306       -12.3351
  36   2.0000      -0.442435       -12.0393
  37   2.0000      -0.438562       -11.9339
  38   2.0000      -0.432222       -11.7614
  39   2.0000      -0.415098       -11.2954
  40   2.0000      -0.406489       -11.0611
  41   2.0000      -0.389853       -10.6084
  42   2.0000      -0.330471        -8.9926
  43   2.0000      -0.310964        -8.4618
  44   2.0000      -0.308406        -8.3922
  45   2.0000      -0.283877        -7.7247
  46   2.0000      -0.274285        -7.4637
  47   2.0000      -0.190297        -5.1782
  48   0.0000      -0.026161        -0.7119
  49   0.0000      -0.006301        -0.1715
  50   0.0000       0.006937         0.1888
  51   0.0000       0.024476         0.6660
  52   0.0000       0.040266         1.0957

MULLIKEN ATOMIC CHARGES
-----------------------
   0 C :   -0.337373
   1 O :   -0.924018
   2 H :    0.267767
   3 Li:    0.618654
   4 Mg:    0.677390
   5 Al:    0.430323
   6 C :   -0.780118
   7 H :    0.217440
   8 H :    0.281389
   9 H :    0.249230
  10 F :   -0.540250
  11 S :   -0.270322
  12 C :   -1.211485
  13 H :    0.399965
  14 Na:    0.658441
  15 H :    0.262968
Sum of atomic charges:   -0.0000000

LOEWDIN ATOMIC CHARGES
----------------------
   0 C :   -0.153462
   1 O :   -0.549313
   2 H :    0.173553
   3 Li:    0.162843
   4 Mg:   -0.355865
   5 Al:    0.211968
   6 C :   -0.314110
   7 H :    0.176961
   8 H :    0.170010
   9 H :    0.145334
  10 F :   -0.214480
  11 S :    0.226688
  12 C :   -0.558404
  13 H :    0.310721
  14 Na:    0.368679
  15 H :    0.198879

  Mayer bond orders larger than 0.100000
B(  0-C ,  4-Mg) :   0.1324 B(  0-C ,  5-Al) :   0.1224 B(  0-C ,  6-C ) :   1.5132
B(  0-C ,  9-H ) :   0.9093 B(  0-C , 11-S ) :   1.0872 B(  1-O ,  3-Li) :   0.4684
B(  1-O , 13-H ) :   0.7942 B(  1-O , 14-Na) :   0.4056 B(  2-H , 12-C ) :   0.8843
B(  3-Li,  5-Al) :   0.1501 B(  4-Mg,  6-C ) :   0.4144 B(  4-Mg, 10-F ) :   0.6758
B(  4-Mg, 11-S ) :   0.5717 B(  4-Mg, 12-C ) :   0.3860 B(  5-Al,  6-C ) :   0.4007
B(  5-Al, 11-S ) :   0.4050 B(  5-Al, 12-C ) :   0.4042 B(  6-C ,  7-H ) :   0.9168
B(  8-H , 12-C ) :   0.8855 B( 10-F , 14-Na) :   0.2069 B( 12-C , 15-H ) :   0.8140

Dispersion correction           -0.009808838
FINAL SINGLE POINT ENERGY     -1301.778342547219

DIPOLE MOMENT
-------------
                                X             Y             Z
Electronic contribution:      7.17678      -0.75111       1.04192
Nuclear contribution   :     -4.73361      -0.01726       0.75410
                        -----------------------------------------
Total Dipole Moment    :      2.44317      -0.76837       1.79602
                        -----------------------------------------
Magnitude (a.u.)       :      3.12812
Magnitude (Debye)      :      7.95105

Rotational constants in cm-1:     0.043596     0.019676     0.017651
Rotational constants in MHz :  1306.960503   589.883166   529.153602

                             ****ORCA TERMINATED NORMALLY****
TOTAL RUN TIME: 0 days 0 hours 2 minutes 10 seconds 504 msec
