                         Program Version 5.0.3 -  RELEASE  -
|  1> ! PBEh-3c def2/J TightSCF DefGrid3
|  2>
|  3> %maxcore 60000
|  4>
|  5> %pal
|  6> nprocs 4
|  7> end
|  8>
|  9> *xyzfile 0 1 li_ch2n.xyz
| 10>
| 11>                          ****END OF INPUT****

CARTESIAN COORDINATES (ANGSTROEM)
---------------------------------
  C     -0.087302   -0.575626    0.427279
  H      0.723908   -0.979873    1.020245
  C      0.002304    0.758544    0.082680
  H     -1.067967   -0.940913    0.706551
  Li     0.289333    0.016486   -1.653917
  N      0.139723    1.721382   -0.582838

 Total Charge           Charge          ....    0
 Multiplicity           Mult            ....    1
 Number of Electrons    NEL             ....   24
 Basis Dimension        Dim             ....   58

ORBITAL ENERGIES
----------------

  NO   OCC          E(Eh)            E(eV)
   0   2.0000     -14.609857      -397.5544
   1   2.0000     -10.473447      -284.9970
   2   2.0000     -10.410893      -283.2948
   3   2.0000      -2.131903       -58.0120
   4   2.0000      -0.991584       -26.9824
   5   2.0000      -0.792920       -21.5765
   6   2.0000      -0.530102       -14.4248
   7   2.0000      -0.478715       -13.0265
   8   2.0000      -0.426180       -11.5970
   9   2.0000      -0.400069       -10.8864
  10   2.0000      -0.354110        -9.6358
  11   2.0000      -0.240487        -6.5440
  12   0.0000      -0.024178        -0.6579
  13   0.0000       0.063509         1.7282
  14   0.0000       0.067944         1.8489
  15   0.0000       0.083497         2.2721
  16   0.0000       0.102845         2.7985

MULLIKEN ATOMIC CHARGES
-----------------------
   0 C :   -0.831654
   1 H :    0.238215
   2 C :    0.062615
   3 H :    0.238221
   4 Li:    0.676485
   5 N :   -0.383883
Sum of atomic charges:   -0.0000000

LOEWDIN ATOMIC CHARGES
----------------------
   0 C :   -0.522155
   1 H :    0.157937
   2 C :    0.002352
   3 H :    0.157941
   4 Li:    0.388126
   5 N :   -0.184201

  Mayer bond orders larger than 0.100000
B(  0-C ,  1-H ) :   0.9085 B(  0-C ,  2-C ) :   1.3203 B(  0-C ,  3-H ) :   0.9085
B(  0-C ,  4-Li) :   0.2505 B(  0-C ,  5-N ) :   0.1111 B(  2-C ,  5-N ) :   2.6441
B(  4-Li,  5-N ) :   0.2855

Dispersion correction           -0.001764182
FINAL SINGLE POINT ENERGY      -139.346636434565

DIPOLE MOMENT
-------------
                                X             Y             Z
Electronic contribution:      0.84816       1.18162      -4.70584
Nuclear contribution   :     -0.63275      -2.32761       3.32778
                        -----------------------------------------
Total Dipole Moment    :      0.21541      -1.14599      -1.37806
                        -----------------------------------------
Magnitude (a.u.)       :      1.80520
Magnitude (Debye)      :      4.58846

Rotational constants in cm-1:     0.825679     0.338175     0.251876
Rotational constants in MHz : 24753.221832 10138.245140  7551.057676

                             ****ORCA TERMINATED NORMALLY****
TOTAL RUN TIME: 0 days 0 hours 1 minutes 10 seconds 2 msec
