                         Program Version 5.0.3 -  RELEASE  -
|  1> ! PBEh-3c def2/J TightSCF DefGrid3
|  2>
|  3> %maxcore 60000
|  4>
|  5> %pal
|  6> nprocs 4
|  7> end
|  8>
|  9> *xyzfile 0 1 15.xyz
| 10>
| 11>                          ****END OF INPUT****

CARTESIAN COORDINATES (ANGSTROEM)
---------------------------------
  N      0.000000    0.691283    0.000000
  N     -0.668891   -2.153071    0.000000
  F      0.756395    1.890287    0.000000
  H     -1.547845   -1.651341    0.000000
  H      0.376422    0.189509    0.800592
  H     -0.665161   -2.753873   -0.813407
  H      0.376422    0.189509   -0.800592
  H     -0.665161   -2.753873    0.813407

 Total Charge           Charge          ....    0
 Multiplicity           Mult            ....    1
 Number of Electrons    NEL             ....   28
 Basis Dimension        Dim             ....   55

ORBITAL ENERGIES
----------------

  NO   OCC          E(Eh)            E(eV)
   0   2.0000     -25.065246      -682.0600
   1   2.0000     -14.681804      -399.5122
   2   2.0000     -14.617973      -397.7753
   3   2.0000      -1.294913       -35.2364
   4   2.0000      -0.955533       -26.0014
   5   2.0000      -0.905974       -24.6528
   6   2.0000      -0.572557       -15.5801
   7   2.0000      -0.549296       -14.9471
   8   2.0000      -0.532318       -14.4851
   9   2.0000      -0.530134       -14.4257
  10   2.0000      -0.482662       -13.1339
  11   2.0000      -0.411570       -11.1994
  12   2.0000      -0.330762        -9.0005
  13   2.0000      -0.310390        -8.4461
  14   0.0000       0.106949         2.9102
  15   0.0000       0.146495         3.9863
  16   0.0000       0.174243         4.7414
  17   0.0000       0.204056         5.5526
  18   0.0000       0.214491         5.8366

MULLIKEN ATOMIC CHARGES
-----------------------
   0 N :   -0.350082
   1 N :   -0.972049
   2 F :   -0.342281
   3 H :    0.336033
   4 H :    0.337441
   5 H :    0.326748
   6 H :    0.337441
   7 H :    0.326748
Sum of atomic charges:   -0.0000000

LOEWDIN ATOMIC CHARGES
----------------------
   0 N :   -0.194085
   1 N :   -0.650697
   2 F :   -0.271950
   3 H :    0.227384
   4 H :    0.222392
   5 H :    0.222282
   6 H :    0.222392
   7 H :    0.222282

  Mayer bond orders larger than 0.100000
B(  0-N ,  2-F ) :   0.9106 B(  0-N ,  4-H ) :   0.8471 B(  0-N ,  6-H ) :   0.8471
B(  1-N ,  3-H ) :   0.8641 B(  1-N ,  5-H ) :   0.8734 B(  1-N ,  7-H ) :   0.8734

Dispersion correction           -0.001604200
FINAL SINGLE POINT ENERGY      -211.833241812561

DIPOLE MOMENT
-------------
                                X             Y             Z
Electronic contribution:      2.60874       7.20489      -0.00000
Nuclear contribution   :     -2.90577      -8.74428       0.00000
                        -----------------------------------------
Total Dipole Moment    :     -0.29702      -1.53939      -0.00000
                        -----------------------------------------
Magnitude (a.u.)       :      1.56778
Magnitude (Debye)      :      3.98498

Rotational constants in cm-1:     3.531939     0.095365     0.095107
Rotational constants in MHz : 105884.854683  2858.968356  2851.240936

                             ****ORCA TERMINATED NORMALLY****
TOTAL RUN TIME: 0 days 0 hours 0 minutes 41 seconds 957 msec
