                         Program Version 5.0.3 -  RELEASE  -
|  1> ! PBEh-3c def2/J TightSCF DefGrid3
|  2>
|  3> %maxcore 60000
|  4>
|  5> %pal
|  6> nprocs 4
|  7> end
|  8>
|  9> *xyzfile 0 1 9p2.xyz
| 10>
| 11>                          ****END OF INPUT****

CARTESIAN COORDINATES (ANGSTROEM)
---------------------------------
  C      0.000000    0.000000   -0.561609
  O      0.000000    0.000000    0.561609

 Total Charge           Charge          ....    0
 Multiplicity           Mult            ....    1
 Number of Electrons    NEL             ....   14
 Basis Dimension        Dim             ....   30

ORBITAL ENERGIES
----------------

  NO   OCC          E(Eh)            E(eV)
   0   2.0000     -19.605296      -533.4872
   1   2.0000     -10.565948      -287.5141
   2   2.0000      -1.281549       -34.8727
   3   2.0000      -0.648311       -17.6414
   4   2.0000      -0.535712       -14.5775
   5   2.0000      -0.535712       -14.5775
   6   2.0000      -0.432130       -11.7588
   7   0.0000       0.017972         0.4891
   8   0.0000       0.017972         0.4891
   9   0.0000       0.288123         7.8402
  10   0.0000       0.507255        13.8031
  11   0.0000       0.507255        13.8031

MULLIKEN ATOMIC CHARGES
-----------------------
   0 C :    0.133040
   1 O :   -0.133040
Sum of atomic charges:   -0.0000000

LOEWDIN ATOMIC CHARGES
----------------------
   0 C :   -0.027521
   1 O :    0.027521

  Mayer bond orders larger than 0.100000
B(  0-C ,  1-O ) :   2.5034

Dispersion correction           -0.000210091
FINAL SINGLE POINT ENERGY      -113.066056498894

DIPOLE MOMENT
-------------
                                X             Y             Z
Electronic contribution:      0.00000       0.00000       0.01153
Nuclear contribution   :      0.00000       0.00000       0.00712
                        -----------------------------------------
Total Dipole Moment    :      0.00000       0.00000       0.01865
                        -----------------------------------------
Magnitude (a.u.)       :      0.01865
Magnitude (Debye)      :      0.04741

Rotational constants in cm-1:     0.000000     1.947647     1.947647
Rotational constants in MHz :     0.000000 58388.982549 58388.982549

                             ****ORCA TERMINATED NORMALLY****
TOTAL RUN TIME: 0 days 0 hours 1 minutes 27 seconds 4 msec
