                         Program Version 5.0.3 -  RELEASE  -
|  1> ! PBEh-3c def2/J TightSCF DefGrid3
|  2>
|  3> %maxcore 60000
|  4>
|  5> %pal
|  6> nprocs 4
|  7> end
|  8>
|  9> *xyzfile 0 1 NH3_NIS.xyz
| 10>
| 11>                          ****END OF INPUT****

CARTESIAN COORDINATES (ANGSTROEM)
---------------------------------
  N     -0.002207   -3.779959    0.000000
  H      0.467427   -4.144002    0.818138
  H      0.467427   -4.144002   -0.818138
  H     -0.949694   -4.133182    0.000000
  I      0.001579   -1.085990    0.000000
  C      1.139682    1.767599    0.000000
  N      0.000000    0.972722    0.000000
  O      2.278568    1.383884    0.000000
  O     -2.279448    1.378876    0.000000
  C     -1.141393    1.765109    0.000000
  C     -0.663890    3.190112    0.000000
  C      0.658999    3.191570    0.000000
  H      1.348036    4.021953    0.000000
  H     -1.354763    4.018966    0.000000

 Total Charge           Charge          ....    0
 Multiplicity           Mult            ....    1
 Number of Electrons    NEL             ....   84
 Basis Dimension        Dim             ....  156

ORBITAL ENERGIES
----------------

  NO   OCC          E(Eh)            E(eV)
   0   2.0000     -19.487285      -530.2760
   1   2.0000     -19.487267      -530.2755
   2   2.0000     -14.680187      -399.4682
   3   2.0000     -14.669554      -399.1789
   4   2.0000     -10.565094      -287.4908
   5   2.0000     -10.565057      -287.4898
   6   2.0000     -10.478111      -285.1239
   7   2.0000     -10.477094      -285.0962
   8   2.0000      -7.105441      -193.3489
   9   2.0000      -5.094908      -138.6395
  10   2.0000      -5.068877      -137.9312
  11   2.0000      -5.068690      -137.9261
  12   2.0000      -2.047451       -55.7140
  13   2.0000      -2.039536       -55.4986
  14   2.0000      -2.039353       -55.4936
  15   2.0000      -2.017443       -54.8974
  16   2.0000      -2.017431       -54.8971
  17   2.0000      -1.178565       -32.0704
  18   2.0000      -1.161384       -31.6029
  19   2.0000      -1.049065       -28.5465
  20   2.0000      -1.000580       -27.2272
  21   2.0000      -0.904391       -24.6097
  22   2.0000      -0.769082       -20.9278
  23   2.0000      -0.748930       -20.3794
  24   2.0000      -0.668963       -18.2034
  25   2.0000      -0.624068       -16.9818
  26   2.0000      -0.576870       -15.6974
  27   2.0000      -0.576806       -15.6957
  28   2.0000      -0.559987       -15.2380
  29   2.0000      -0.526971       -14.3396
  30   2.0000      -0.518137       -14.0992
  31   2.0000      -0.504221       -13.7206
  32   2.0000      -0.480444       -13.0735
  33   2.0000      -0.479030       -13.0351
  34   2.0000      -0.447474       -12.1764
  35   2.0000      -0.376654       -10.2493
  36   2.0000      -0.356801        -9.7091
  37   2.0000      -0.344485        -9.3739
  38   2.0000      -0.340926        -9.2771
  39   2.0000      -0.315787        -8.5930
  40   2.0000      -0.304724        -8.2920
  41   2.0000      -0.280842        -7.6421
  42   0.0000      -0.057179        -1.5559
  43   0.0000      -0.009642        -0.2624
  44   0.0000       0.109266         2.9733
  45   0.0000       0.113621         3.0918
  46   0.0000       0.115694         3.1482

MULLIKEN ATOMIC CHARGES
-----------------------
   0 N :   -0.961256
   1 H :    0.363408
   2 H :    0.363408
   3 H :    0.363801
   4 I :    0.293899
   5 C :    0.560136
   6 N :   -0.768215
   7 O :   -0.350504
   8 O :   -0.350648
   9 C :    0.560213
  10 C :   -0.294430
  11 C :   -0.294478
  12 H :    0.257337
  13 H :    0.257328
Sum of atomic charges:    0.0000000

LOEWDIN ATOMIC CHARGES
----------------------
   0 N :   -0.579208
   1 H :    0.243719
   2 H :    0.243719
   3 H :    0.243976
   4 I :    0.246501
   5 C :    0.113541
   6 N :   -0.295746
   7 O :   -0.187608
   8 O :   -0.187726
   9 C :    0.113535
  10 C :   -0.132826
  11 C :   -0.132814
  12 H :    0.155470
  13 H :    0.155467

  Mayer bond orders larger than 0.100000
B(  0-N ,  1-H ) :   0.8483 B(  0-N ,  2-H ) :   0.8483 B(  0-N ,  3-H ) :   0.8480
B(  0-N ,  4-I ) :   0.2026 B(  4-I ,  6-N ) :   0.7446 B(  5-C ,  6-N ) :   1.0193
B(  5-C ,  7-O ) :   2.0704 B(  5-C , 11-C ) :   0.9663 B(  6-N ,  9-C ) :   1.0193
B(  8-O ,  9-C ) :   2.0703 B(  9-C , 10-C ) :   0.9663 B( 10-C , 11-C ) :   1.7784
B( 10-C , 13-H ) :   0.9142 B( 11-C , 12-H ) :   0.9142

Dispersion correction           -0.007279460
FINAL SINGLE POINT ENERGY      -712.235198299105

DIPOLE MOMENT
-------------
                                X             Y             Z
Electronic contribution:      0.11321     -71.03487      -0.00000
Nuclear contribution   :     -0.11946      69.54323       0.00000
                        -----------------------------------------
Total Dipole Moment    :     -0.00624      -1.49164      -0.00000
                        -----------------------------------------
Magnitude (a.u.)       :      1.49166
Magnitude (Debye)      :      3.79149

Rotational constants in cm-1:     0.078652     0.020359     0.016215
Rotational constants in MHz :  2357.914205   610.345161   486.102182

                             ****ORCA TERMINATED NORMALLY****
TOTAL RUN TIME: 0 days 0 hours 2 minutes 22 seconds 144 msec
