                         Program Version 5.0.3 -  RELEASE  -
|  1> ! PBEh-3c def2/J TightSCF DefGrid3
|  2>
|  3> %maxcore 60000
|  4>
|  5> %pal
|  6> nprocs 4
|  7> end
|  8>
|  9> *xyzfile 0 1 32.xyz
| 10>
| 11>                          ****END OF INPUT****

CARTESIAN COORDINATES (ANGSTROEM)
---------------------------------
  N     -0.046853   -1.219460   -0.862080
  H     -0.048716   -2.229183   -0.817037
  C     -1.305359   -0.606615   -0.936676
  O     -2.320296   -1.279370   -0.995193
  C     -1.239758    0.844582   -0.938599
  H     -2.155749    1.403863   -1.019192
  C     -0.044479    1.459958   -0.837895
  H      0.056711    2.534960   -0.828670
  N      1.124527    0.756121   -0.736921
  H      2.005256    1.225810   -0.610470
  C      1.183947   -0.625274   -0.695924
  O      2.223232   -1.237935   -0.536918
  C      0.716452   -0.443772    2.404261
  H      1.712271   -0.797758    2.290042
  C     -0.428152   -0.057314    2.510453
  H     -1.433034    0.271386    2.610817

 Total Charge           Charge          ....    0
 Multiplicity           Mult            ....    1
 Number of Electrons    NEL             ....   72
 Basis Dimension        Dim             ....  162

ORBITAL ENERGIES
----------------

  NO   OCC          E(Eh)            E(eV)
   0   2.0000     -19.482151      -530.1363
   1   2.0000     -19.474169      -529.9191
   2   2.0000     -14.714858      -400.4116
   3   2.0000     -14.693709      -399.8361
   4   2.0000     -10.607852      -288.6543
   5   2.0000     -10.571250      -287.6583
   6   2.0000     -10.535476      -286.6849
   7   2.0000     -10.464697      -284.7589
   8   2.0000     -10.462136      -284.6892
   9   2.0000     -10.459635      -284.6211
  10   2.0000      -1.195078       -32.5197
  11   2.0000      -1.155872       -31.4529
  12   2.0000      -1.091188       -29.6927
  13   2.0000      -1.032064       -28.0839
  14   2.0000      -0.896874       -24.4052
  15   2.0000      -0.843868       -22.9628
  16   2.0000      -0.777324       -21.1521
  17   2.0000      -0.747663       -20.3449
  18   2.0000      -0.675540       -18.3824
  19   2.0000      -0.641554       -17.4576
  20   2.0000      -0.634147       -17.2560
  21   2.0000      -0.590936       -16.0802
  22   2.0000      -0.563522       -15.3342
  23   2.0000      -0.548920       -14.9369
  24   2.0000      -0.542161       -14.7529
  25   2.0000      -0.521278       -14.1847
  26   2.0000      -0.489187       -13.3115
  27   2.0000      -0.483538       -13.1577
  28   2.0000      -0.465988       -12.6802
  29   2.0000      -0.428271       -11.6538
  30   2.0000      -0.360653        -9.8139
  31   2.0000      -0.343920        -9.3585
  32   2.0000      -0.341040        -9.2802
  33   2.0000      -0.335998        -9.1430
  34   2.0000      -0.326630        -8.8880
  35   2.0000      -0.297724        -8.1015
  36   0.0000      -0.019622        -0.5340
  37   0.0000       0.038100         1.0368
  38   0.0000       0.063760         1.7350
  39   0.0000       0.066657         1.8138
  40   0.0000       0.099025         2.6946

MULLIKEN ATOMIC CHARGES
-----------------------
   0 N :   -0.714312
   1 H :    0.397304
   2 C :    0.569379
   3 O :   -0.394096
   4 C :   -0.456639
   5 H :    0.262927
   6 C :    0.094167
   7 H :    0.271322
   8 N :   -0.672682
   9 H :    0.390328
  10 C :    0.680055
  11 O :   -0.425884
  12 C :   -0.254214
  13 H :    0.263414
  14 C :   -0.256459
  15 H :    0.245390
Sum of atomic charges:   -0.0000000

LOEWDIN ATOMIC CHARGES
----------------------
   0 N :   -0.197199
   1 H :    0.286107
   2 C :    0.124751
   3 O :   -0.244118
   4 C :   -0.242259
   5 H :    0.161896
   6 C :   -0.008887
   7 H :    0.149303
   8 N :   -0.182543
   9 H :    0.280931
  10 C :    0.145430
  11 O :   -0.272692
  12 C :   -0.171041
  13 H :    0.171262
  14 C :   -0.167024
  15 H :    0.166083

  Mayer bond orders larger than 0.100000
B(  0-N ,  1-H ) :   0.8002 B(  0-N ,  2-C ) :   0.9772 B(  0-N , 10-C ) :   1.0699
B(  2-C ,  3-O ) :   2.0391 B(  2-C ,  4-C ) :   1.0587 B(  4-C ,  5-H ) :   0.9079
B(  4-C ,  6-C ) :   1.6423 B(  6-C ,  7-H ) :   0.8997 B(  6-C ,  8-N ) :   1.0779
B(  8-N ,  9-H ) :   0.8102 B(  8-N , 10-C ) :   1.0250 B( 10-C , 11-O ) :   2.0339
B( 12-C , 13-H ) :   0.9085 B( 12-C , 14-C ) :   2.8379 B( 14-C , 15-H ) :   0.9244

Dispersion correction           -0.009277117
FINAL SINGLE POINT ENERGY      -491.085960437482

DIPOLE MOMENT
-------------
                                X             Y             Z
Electronic contribution:      0.38838      -2.08631      -2.55744
Nuclear contribution   :      0.12214       3.75843       2.60947
                        -----------------------------------------
Total Dipole Moment    :      0.51052       1.67212       0.05203
                        -----------------------------------------
Magnitude (a.u.)       :      1.74909
Magnitude (Debye)      :      4.44584

Rotational constants in cm-1:     0.050034     0.040717     0.034440
Rotational constants in MHz :  1499.989437  1220.660405  1032.471316

                             ****ORCA TERMINATED NORMALLY****
TOTAL RUN TIME: 0 days 0 hours 1 minutes 52 seconds 963 msec
