                         Program Version 5.0.3 -  RELEASE  -
|  1> ! PBEh-3c def2/J TightSCF DefGrid3
|  2>
|  3> %maxcore 60000
|  4>
|  5> %pal
|  6> nprocs 4
|  7> end
|  8>
|  9> *xyzfile 0 1 i8e.xyz
| 10>
| 11>                          ****END OF INPUT****

CARTESIAN COORDINATES (ANGSTROEM)
---------------------------------
  C     -1.883897    3.246352    0.029287
  C     -0.517253    3.063581   -0.017295
  C      0.183536    1.823158    0.119043
  C      1.526542    1.751826   -0.102333
  N      2.391070    0.651575    0.018429
  C     -2.867327    2.221188    0.038975
  C     -4.224943    2.464277    0.078363
  C     -5.336691    1.570934   -0.002852
  C     -5.409195    0.188405   -0.063163
  C     -4.340488   -0.724462    0.069492
  C     -4.381296   -2.086649   -0.135939
  C     -3.227536   -2.930776   -0.087795
  C     -1.935472   -2.455369   -0.108324
  C     -0.742594   -3.191257    0.097761
  C      0.515868   -2.624261    0.152345
  C      0.819013   -1.255158   -0.129000
  C      2.013587   -0.692270    0.194140
  C      3.784264    0.979265   -0.027870
  O      4.212013    2.112922   -0.071468
  O      4.545252   -0.135099   -0.033331
  C      5.990198    0.092434   -0.042955
  C      6.654501   -1.271743   -0.020144
  H     -2.249616    4.274965    0.008197
  H      0.099068    3.952074   -0.166406
  H     -0.380361    0.956614    0.445790
  H      2.055678    2.654112   -0.389987
  H     -2.500146    1.205274   -0.065221
  H     -4.506877    3.518868    0.140292
  H     -6.298633    2.081346   -0.068372
  H     -6.399194   -0.236873   -0.243548
  H     -3.393379   -0.313826    0.398281
  H     -5.343674   -2.553446   -0.356074
  H     -3.388026   -4.009306   -0.030891
  H     -1.814457   -1.383839   -0.258199
  H     -0.831911   -4.259205    0.302846
  H      1.345866   -3.256578    0.472411
  H      0.067872   -0.659639   -0.633999
  H      2.785932   -1.303047    0.646667
  H      6.251202    0.698783    0.832824
  H      6.239663    0.663322   -0.945421
  H      6.386763   -1.824178    0.888616
  H      7.743940   -1.140234   -0.038143
  H      6.361136   -1.864059   -0.895029

 Total Charge           Charge          ....    0
 Multiplicity           Mult            ....    1
 Number of Electrons    NEL             ....  158
 Basis Dimension        Dim             ....  372

ORBITAL ENERGIES
----------------

  NO   OCC          E(Eh)            E(eV)
   0   2.0000     -19.564226      -532.3697
   1   2.0000     -19.500741      -530.6421
   2   2.0000     -14.725507      -400.7014
   3   2.0000     -10.627782      -289.1966
   4   2.0000     -10.518940      -286.2349
   5   2.0000     -10.502019      -285.7745
   6   2.0000     -10.498782      -285.6864
   7   2.0000     -10.462239      -284.6920
   8   2.0000     -10.459478      -284.6169
   9   2.0000     -10.457095      -284.5520
  10   2.0000     -10.456439      -284.5342
  11   2.0000     -10.456386      -284.5327
  12   2.0000     -10.456293      -284.5302
  13   2.0000     -10.456037      -284.5232
  14   2.0000     -10.454736      -284.4878
  15   2.0000     -10.452915      -284.4383
  16   2.0000     -10.452812      -284.4355
  17   2.0000     -10.452051      -284.4148
  18   2.0000     -10.451636      -284.4035
  19   2.0000     -10.451174      -284.3909
  20   2.0000     -10.450446      -284.3711
  21   2.0000     -10.449652      -284.3495
  22   2.0000      -1.242848       -33.8196
  23   2.0000      -1.147271       -31.2188
  24   2.0000      -1.081535       -29.4301
  25   2.0000      -0.931649       -25.3515
  26   2.0000      -0.924419       -25.1547
  27   2.0000      -0.909906       -24.7598
  28   2.0000      -0.895899       -24.3787
  29   2.0000      -0.882619       -24.0173
  30   2.0000      -0.860643       -23.4193
  31   2.0000      -0.850817       -23.1519
  32   2.0000      -0.810366       -22.0512
  33   2.0000      -0.790296       -21.5051
  34   2.0000      -0.755183       -20.5496
  35   2.0000      -0.734456       -19.9856
  36   2.0000      -0.720339       -19.6014
  37   2.0000      -0.688361       -18.7312
  38   2.0000      -0.677730       -18.4420
  39   2.0000      -0.649224       -17.6663
  40   2.0000      -0.641388       -17.4530
  41   2.0000      -0.627611       -17.0782
  42   2.0000      -0.618779       -16.8378
  43   2.0000      -0.607316       -16.5259
  44   2.0000      -0.598904       -16.2970
  45   2.0000      -0.581516       -15.8239
  46   2.0000      -0.576628       -15.6909
  47   2.0000      -0.554882       -15.0991
  48   2.0000      -0.548366       -14.9218
  49   2.0000      -0.536270       -14.5927
  50   2.0000      -0.524507       -14.2726
  51   2.0000      -0.521878       -14.2010
  52   2.0000      -0.511408       -13.9161
  53   2.0000      -0.502492       -13.6735
  54   2.0000      -0.489367       -13.3163
  55   2.0000      -0.483045       -13.1443
  56   2.0000      -0.468655       -12.7528
  57   2.0000      -0.464146       -12.6300
  58   2.0000      -0.462317       -12.5803
  59   2.0000      -0.461858       -12.5678
  60   2.0000      -0.452313       -12.3081
  61   2.0000      -0.441857       -12.0235
  62   2.0000      -0.431664       -11.7462
  63   2.0000      -0.427483       -11.6324
  64   2.0000      -0.423812       -11.5325
  65   2.0000      -0.421722       -11.4756
  66   2.0000      -0.408201       -11.1077
  67   2.0000      -0.404613       -11.0101
  68   2.0000      -0.400239       -10.8911
  69   2.0000      -0.397516       -10.8170
  70   2.0000      -0.383529       -10.4364
  71   2.0000      -0.377978       -10.2853
  72   2.0000      -0.369158       -10.0453
  73   2.0000      -0.362060        -9.8522
  74   2.0000      -0.358692        -9.7605
  75   2.0000      -0.305244        -8.3061
  76   2.0000      -0.295078        -8.0295
  77   2.0000      -0.226528        -6.1641
  78   2.0000      -0.207216        -5.6386
  79   0.0000      -0.072929        -1.9845
  80   0.0000      -0.040718        -1.1080
  81   0.0000       0.012388         0.3371
  82   0.0000       0.037448         1.0190
  83   0.0000       0.066170         1.8006

MULLIKEN ATOMIC CHARGES
-----------------------
   0 C :   -0.217043
   1 C :   -0.211673
   2 C :   -0.286544
   3 C :    0.004487
   4 N :   -0.601401
   5 C :   -0.215455
   6 C :   -0.223677
   7 C :   -0.212627
   8 C :   -0.215788
   9 C :   -0.221817
  10 C :   -0.212155
  11 C :   -0.218670
  12 C :   -0.210093
  13 C :   -0.218163
  14 C :   -0.215170
  15 C :   -0.289394
  16 C :    0.008980
  17 C :    0.778873
  18 O :   -0.424344
  19 O :   -0.488987
  20 C :   -0.161579
  21 C :   -0.667375
  22 H :    0.212782
  23 H :    0.216354
  24 H :    0.235246
  25 H :    0.278927
  26 H :    0.198149
  27 H :    0.210218
  28 H :    0.216480
  29 H :    0.212320
  30 H :    0.209871
  31 H :    0.215887
  32 H :    0.214547
  33 H :    0.201073
  34 H :    0.214435
  35 H :    0.214111
  36 H :    0.246634
  37 H :    0.261165
  38 H :    0.232719
  39 H :    0.234037
  40 H :    0.231071
  41 H :    0.227071
  42 H :    0.236518
Sum of atomic charges:   -0.0000000

LOEWDIN ATOMIC CHARGES
----------------------
   0 C :   -0.149473
   1 C :   -0.132577
   2 C :   -0.184272
   3 C :   -0.051900
   4 N :   -0.076290
   5 C :   -0.132914
   6 C :   -0.145913
   7 C :   -0.149441
   8 C :   -0.139001
   9 C :   -0.133598
  10 C :   -0.134678
  11 C :   -0.142249
  12 C :   -0.128529
  13 C :   -0.146574
  14 C :   -0.133578
  15 C :   -0.178888
  16 C :   -0.059905
  17 C :    0.196511
  18 O :   -0.237328
  19 O :   -0.183024
  20 C :   -0.066335
  21 C :   -0.370604
  22 H :    0.136566
  23 H :    0.137929
  24 H :    0.138905
  25 H :    0.160449
  26 H :    0.125026
  27 H :    0.135280
  28 H :    0.137700
  29 H :    0.136472
  30 H :    0.131152
  31 H :    0.135824
  32 H :    0.135802
  33 H :    0.125723
  34 H :    0.137550
  35 H :    0.136712
  36 H :    0.143080
  37 H :    0.150170
  38 H :    0.129669
  39 H :    0.130681
  40 H :    0.136875
  41 H :    0.139561
  42 H :    0.139434

  Mayer bond orders larger than 0.100000
B(  0-C ,  1-C ) :   1.6137 B(  0-C ,  5-C ) :   1.2022 B(  0-C , 22-H ) :   0.9186
B(  1-C ,  2-C ) :   1.1723 B(  1-C , 23-H ) :   0.9193 B(  2-C ,  3-C ) :   1.6416
B(  2-C , 24-H ) :   0.9021 B(  3-C ,  4-N ) :   1.0062 B(  3-C , 25-H ) :   0.8832
B(  4-N , 16-C ) :   1.0059 B(  4-N , 17-C ) :   0.9916 B(  5-C ,  6-C ) :   1.5756
B(  5-C , 26-H ) :   0.9071 B(  6-C ,  7-C ) :   1.2192 B(  6-C , 27-H ) :   0.9216
B(  7-C ,  8-C ) :   1.5884 B(  7-C , 28-H ) :   0.9164 B(  8-C ,  9-C ) :   1.2154
B(  8-C , 29-H ) :   0.9208 B(  9-C , 10-C ) :   1.5782 B(  9-C , 30-H ) :   0.9035
B( 10-C , 11-C ) :   1.1993 B( 10-C , 31-H ) :   0.9189 B( 11-C , 12-C ) :   1.5921
B( 11-C , 32-H ) :   0.9207 B( 12-C , 13-C ) :   1.2043 B( 12-C , 33-H ) :   0.9056
B( 13-C , 14-C ) :   1.6115 B( 13-C , 34-H ) :   0.9212 B( 14-C , 15-C ) :   1.1675
B( 14-C , 35-H ) :   0.9210 B( 15-C , 16-C ) :   1.6503 B( 15-C , 36-H ) :   0.8965
B( 16-C , 37-H ) :   0.8933 B( 17-C , 18-O ) :   1.9426 B( 17-C , 19-O ) :   1.0936
B( 19-O , 20-C ) :   0.8441 B( 20-C , 21-C ) :   0.9931 B( 20-C , 38-H ) :   0.9042
B( 20-C , 39-H ) :   0.9034 B( 21-C , 40-H ) :   0.9206 B( 21-C , 41-H ) :   0.9181
B( 21-C , 42-H ) :   0.9186

Dispersion correction           -0.028870783
FINAL SINGLE POINT ENERGY      -939.681658928539

DIPOLE MOMENT
-------------
                                X             Y             Z
Electronic contribution:     -0.09499       4.49138      -0.05771
Nuclear contribution   :      1.22328      -5.26465       0.09871
                        -----------------------------------------
Total Dipole Moment    :      1.12829      -0.77327       0.04100
                        -----------------------------------------
Magnitude (a.u.)       :      1.36846
Magnitude (Debye)      :      3.47834

Rotational constants in cm-1:     0.014305     0.004199     0.003255
Rotational constants in MHz :   428.843245   125.889605    97.595799

                             ****ORCA TERMINATED NORMALLY****
TOTAL RUN TIME: 0 days 0 hours 7 minutes 10 seconds 874 msec
