                         Program Version 5.0.3 -  RELEASE  -
|  1> ! PBEh-3c def2/J TightSCF DefGrid3
|  2>
|  3> %maxcore 60000
|  4>
|  5> %scf
|  6>     guess hcore
|  7> end
|  8>
|  9> %pal
| 10> nprocs 4
| 11> end
| 12>
| 13> *xyzfile 0 1 SO2_TS.xyz
| 14>
| 15>                          ****END OF INPUT****

CARTESIAN COORDINATES (ANGSTROEM)
---------------------------------
  S      0.000031    0.000004    0.000003
  O      1.457311    0.000013   -0.000001
  O     -1.457367   -0.000004   -0.000001

 Total Charge           Charge          ....    0
 Multiplicity           Mult            ....    1
 Number of Electrons    NEL             ....   32
 Basis Dimension        Dim             ....   48

ORBITAL ENERGIES
----------------

  NO   OCC          E(Eh)            E(eV)
   0   2.0000     -89.814164     -2443.9676
   1   2.0000     -19.567905      -532.4698
   2   2.0000     -19.567691      -532.4640
   3   2.0000      -8.415481      -228.9969
   4   2.0000      -6.308413      -171.6607
   5   2.0000      -6.302431      -171.4979
   6   2.0000      -6.302431      -171.4979
   7   2.0000      -1.235730       -33.6259
   8   2.0000      -1.174719       -31.9657
   9   2.0000      -0.719098       -19.5676
  10   2.0000      -0.581416       -15.8211
  11   2.0000      -0.543836       -14.7985
  12   2.0000      -0.543836       -14.7985
  13   2.0000      -0.436314       -11.8727
  14   2.0000      -0.436314       -11.8727
  15   2.0000      -0.305751        -8.3199
  16   0.0000      -0.096245        -2.6190
  17   0.0000      -0.096245        -2.6190
  18   0.0000       0.321553         8.7499
  19   0.0000       0.332370         9.0443
  20   0.0000       0.605465        16.4755

MULLIKEN ATOMIC CHARGES
-----------------------
   0 S :    0.797945
   1 O :   -0.398934
   2 O :   -0.399012
Sum of atomic charges:   -0.0000000

LOEWDIN ATOMIC CHARGES
----------------------
   0 S :    0.669894
   1 O :   -0.334912
   2 O :   -0.334982

  Mayer bond orders larger than 0.100000
B(  0-S ,  1-O ) :   1.8996 B(  0-S ,  2-O ) :   1.8996 B(  1-O ,  2-O ) :   0.3319

Dispersion correction           -0.000649465
FINAL SINGLE POINT ENERGY      -547.709523530294

DIPOLE MOMENT
-------------
                                X             Y             Z
Electronic contribution:      0.00024       0.00000      -0.00000
Nuclear contribution   :     -0.00000       0.00000      -0.00000
                        -----------------------------------------
Total Dipole Moment    :      0.00024       0.00000      -0.00000
                        -----------------------------------------
Magnitude (a.u.)       :      0.00024
Magnitude (Debye)      :      0.00061

Rotational constants in cm-1:     0.000000     0.248058     0.248058
Rotational constants in MHz :     0.000000  7436.587365  7436.587365

                             ****ORCA TERMINATED NORMALLY****
TOTAL RUN TIME: 0 days 0 hours 0 minutes 11 seconds 311 msec
