                         Program Version 5.0.3 -  RELEASE  -
|  1> ! PBEh-3c def2/J TightSCF DefGrid3
|  2>
|  3> %maxcore 60000
|  4>
|  5> %pal
|  6> nprocs 4
|  7> end
|  8>
|  9> *xyzfile 0 1 S4O4_1.xyz
| 10>
| 11>                          ****END OF INPUT****

CARTESIAN COORDINATES (ANGSTROEM)
---------------------------------
  S     -1.456206    1.456206   -0.369094
  O     -1.876551    0.000000    0.369094
  S     -1.456206   -1.456206   -0.369094
  O      0.000000   -1.876551    0.369094
  S      1.456206   -1.456206   -0.369094
  O      1.876551    0.000000    0.369094
  S      1.456206    1.456206   -0.369094
  O      0.000000    1.876551    0.369094

 Total Charge           Charge          ....    0
 Multiplicity           Mult            ....    1
 Number of Electrons    NEL             ....   96
 Basis Dimension        Dim             ....  132

ORBITAL ENERGIES
----------------

  NO   OCC          E(Eh)            E(eV)
   0   2.0000     -89.699953     -2440.8598
   1   2.0000     -89.699911     -2440.8587
   2   2.0000     -89.699911     -2440.8587
   3   2.0000     -89.699888     -2440.8580
   4   2.0000     -19.595299      -533.2152
   5   2.0000     -19.595299      -533.2152
   6   2.0000     -19.595285      -533.2148
   7   2.0000     -19.595260      -533.2141
   8   2.0000      -8.329045      -226.6448
   9   2.0000      -8.329032      -226.6445
  10   2.0000      -8.329032      -226.6445
  11   2.0000      -8.329024      -226.6443
  12   2.0000      -6.222900      -169.3337
  13   2.0000      -6.222900      -169.3337
  14   2.0000      -6.222899      -169.3337
  15   2.0000      -6.222895      -169.3336
  16   2.0000      -6.218626      -169.2174
  17   2.0000      -6.218622      -169.2173
  18   2.0000      -6.218622      -169.2173
  19   2.0000      -6.218612      -169.2170
  20   2.0000      -6.206517      -168.8879
  21   2.0000      -6.206506      -168.8876
  22   2.0000      -6.206506      -168.8876
  23   2.0000      -6.206499      -168.8874
  24   2.0000      -1.229274       -33.4503
  25   2.0000      -1.194852       -32.5136
  26   2.0000      -1.194852       -32.5136
  27   2.0000      -1.150421       -31.3045
  28   2.0000      -0.890927       -24.2434
  29   2.0000      -0.803009       -21.8510
  30   2.0000      -0.803009       -21.8510
  31   2.0000      -0.695056       -18.9134
  32   2.0000      -0.623532       -16.9672
  33   2.0000      -0.581203       -15.8153
  34   2.0000      -0.581203       -15.8153
  35   2.0000      -0.561331       -15.2746
  36   2.0000      -0.509064       -13.8523
  37   2.0000      -0.509064       -13.8523
  38   2.0000      -0.507337       -13.8054
  39   2.0000      -0.480490       -13.0748
  40   2.0000      -0.472586       -12.8597
  41   2.0000      -0.430488       -11.7142
  42   2.0000      -0.414844       -11.2885
  43   2.0000      -0.414844       -11.2885
  44   2.0000      -0.316422        -8.6103
  45   2.0000      -0.309482        -8.4214
  46   2.0000      -0.303850        -8.2682
  47   2.0000      -0.303850        -8.2682
  48   0.0000      -0.043128        -1.1736
  49   0.0000      -0.043128        -1.1736
  50   0.0000      -0.022179        -0.6035
  51   0.0000      -0.012263        -0.3337
  52   0.0000       0.032542         0.8855

MULLIKEN ATOMIC CHARGES
-----------------------
   0 S :    0.608704
   1 O :   -0.608704
   2 S :    0.608704
   3 O :   -0.608704
   4 S :    0.608704
   5 O :   -0.608704
   6 S :    0.608704
   7 O :   -0.608704
Sum of atomic charges:   -0.0000000

LOEWDIN ATOMIC CHARGES
----------------------
   0 S :    0.482132
   1 O :   -0.482133
   2 S :    0.482133
   3 O :   -0.482132
   4 S :    0.482132
   5 O :   -0.482133
   6 S :    0.482133
   7 O :   -0.482133

  Mayer bond orders larger than 0.100000
B(  0-S ,  1-O ) :   0.9209 B(  0-S ,  7-O ) :   0.9209 B(  1-O ,  2-S ) :   0.9209
B(  2-S ,  3-O ) :   0.9209 B(  3-O ,  4-S ) :   0.9209 B(  4-S ,  5-O ) :   0.9209
B(  5-O ,  6-S ) :   0.9209 B(  6-S ,  7-O ) :   0.9209

Dispersion correction           -0.005838147
FINAL SINGLE POINT ENERGY     -1891.071384705687

DIPOLE MOMENT
-------------
                                X             Y             Z
Electronic contribution:     -0.00000      -0.00000      -1.17985
Nuclear contribution   :     -0.00000       0.00000       0.05759
                        -----------------------------------------
Total Dipole Moment    :     -0.00000      -0.00000      -1.12226
                        -----------------------------------------
Magnitude (a.u.)       :      1.12226
Magnitude (Debye)      :      2.85256

Rotational constants in cm-1:     0.041330     0.041330     0.021915
Rotational constants in MHz :  1239.038993  1239.038993   656.991093

                             ****ORCA TERMINATED NORMALLY****
TOTAL RUN TIME: 0 days 0 hours 1 minutes 34 seconds 615 msec
