                         Program Version 5.0.3 -  RELEASE  -
|  1> ! PBEh-3c def2/J TightSCF DefGrid3
|  2>
|  3> %maxcore 60000
|  4>
|  5> %pal
|  6> nprocs 4
|  7> end
|  8>
|  9> *xyzfile 0 1 r13.xyz
| 10>
| 11>                          ****END OF INPUT****

CARTESIAN COORDINATES (ANGSTROEM)
---------------------------------
  C      1.452719   -0.177550    1.263473
  C      1.452719   -0.177550   -1.263473
  C     -1.452719    0.177550    1.263473
  C     -1.452719    0.177550   -1.263473
  C      0.719272    0.261324    0.000000
  C     -0.719272   -0.261324    0.000000
  C      0.716607    0.261458   -2.525173
  C      0.716607    0.261458    2.525173
  C     -0.716607   -0.261458   -2.525173
  C     -0.716607   -0.261458    2.525173
  H      0.699054    1.354465   -2.567603
  H      0.699054    1.354465    2.567603
  H     -0.699054   -1.354465   -2.567603
  H     -0.699054   -1.354465    2.567603
  H     -1.538229    1.269634   -1.255495
  H     -1.538229    1.269634    1.255495
  H      1.538229   -1.269634   -1.255495
  H      1.538229   -1.269634    1.255495
  H     -0.665814   -1.359428    0.000000
  H      0.665814    1.359428    0.000000
  H      1.247647   -0.081597   -3.414528
  H      1.247647   -0.081597    3.414528
  H     -1.247647    0.081597   -3.414528
  H     -1.247647    0.081597    3.414528
  H     -2.470921   -0.218795   -1.255572
  H     -2.470921   -0.218795    1.255572
  H      2.470921    0.218795   -1.255572
  H      2.470921    0.218795    1.255572

 Total Charge           Charge          ....    0
 Multiplicity           Mult            ....    1
 Number of Electrons    NEL             ....   78
 Basis Dimension        Dim             ....  186

ORBITAL ENERGIES
----------------

  NO   OCC          E(Eh)            E(eV)
   0   2.0000     -10.429451      -283.7998
   1   2.0000     -10.429223      -283.7936
   2   2.0000     -10.424472      -283.6643
   3   2.0000     -10.424458      -283.6639
   4   2.0000     -10.424258      -283.6585
   5   2.0000     -10.424240      -283.6580
   6   2.0000     -10.423162      -283.6287
   7   2.0000     -10.423116      -283.6274
   8   2.0000     -10.423100      -283.6270
   9   2.0000     -10.423092      -283.6267
  10   2.0000      -0.943902       -25.6849
  11   2.0000      -0.888727       -24.1835
  12   2.0000      -0.847699       -23.0671
  13   2.0000      -0.817239       -22.2382
  14   2.0000      -0.789489       -21.4831
  15   2.0000      -0.698412       -19.0048
  16   2.0000      -0.673189       -18.3184
  17   2.0000      -0.660912       -17.9843
  18   2.0000      -0.621765       -16.9191
  19   2.0000      -0.617963       -16.8156
  20   2.0000      -0.529073       -14.3968
  21   2.0000      -0.519209       -14.1284
  22   2.0000      -0.507579       -13.8119
  23   2.0000      -0.490525       -13.3479
  24   2.0000      -0.489586       -13.3223
  25   2.0000      -0.474116       -12.9013
  26   2.0000      -0.464392       -12.6368
  27   2.0000      -0.427937       -11.6448
  28   2.0000      -0.418384       -11.3848
  29   2.0000      -0.403497       -10.9797
  30   2.0000      -0.400224       -10.8906
  31   2.0000      -0.397902       -10.8275
  32   2.0000      -0.383691       -10.4408
  33   2.0000      -0.373509       -10.1637
  34   2.0000      -0.369084       -10.0433
  35   2.0000      -0.361053        -9.8248
  36   2.0000      -0.355042        -9.6612
  37   2.0000      -0.323982        -8.8160
  38   2.0000      -0.319429        -8.6921
  39   0.0000       0.140108         3.8125
  40   0.0000       0.144623         3.9354
  41   0.0000       0.149182         4.0594
  42   0.0000       0.159165         4.3311
  43   0.0000       0.179290         4.8787

MULLIKEN ATOMIC CHARGES
-----------------------
   0 C :   -0.399930
   1 C :   -0.399930
   2 C :   -0.399930
   3 C :   -0.399930
   4 C :   -0.209365
   5 C :   -0.209365
   6 C :   -0.420368
   7 C :   -0.420368
   8 C :   -0.420367
   9 C :   -0.420367
  10 H :    0.201267
  11 H :    0.201267
  12 H :    0.201267
  13 H :    0.201267
  14 H :    0.196498
  15 H :    0.196498
  16 H :    0.196498
  17 H :    0.196498
  18 H :    0.190770
  19 H :    0.190770
  20 H :    0.217915
  21 H :    0.217915
  22 H :    0.217915
  23 H :    0.217915
  24 H :    0.213915
  25 H :    0.213915
  26 H :    0.213915
  27 H :    0.213915
Sum of atomic charges:    0.0000000

LOEWDIN ATOMIC CHARGES
----------------------
   0 C :   -0.229259
   1 C :   -0.229259
   2 C :   -0.229259
   3 C :   -0.229260
   4 C :   -0.146008
   5 C :   -0.146008
   6 C :   -0.237820
   7 C :   -0.237820
   8 C :   -0.237820
   9 C :   -0.237820
  10 H :    0.118408
  11 H :    0.118408
  12 H :    0.118408
  13 H :    0.118408
  14 H :    0.118332
  15 H :    0.118332
  16 H :    0.118332
  17 H :    0.118332
  18 H :    0.115364
  19 H :    0.115364
  20 H :    0.123013
  21 H :    0.123013
  22 H :    0.123013
  23 H :    0.123013
  24 H :    0.122648
  25 H :    0.122648
  26 H :    0.122648
  27 H :    0.122648

  Mayer bond orders larger than 0.100000
B(  0-C ,  4-C ) :   0.9881 B(  0-C ,  7-C ) :   0.9907 B(  0-C , 17-H ) :   0.9155
B(  0-C , 27-H ) :   0.9253 B(  1-C ,  4-C ) :   0.9881 B(  1-C ,  6-C ) :   0.9907
B(  1-C , 16-H ) :   0.9155 B(  1-C , 26-H ) :   0.9253 B(  2-C ,  5-C ) :   0.9881
B(  2-C ,  9-C ) :   0.9907 B(  2-C , 15-H ) :   0.9155 B(  2-C , 25-H ) :   0.9253
B(  3-C ,  5-C ) :   0.9881 B(  3-C ,  8-C ) :   0.9907 B(  3-C , 14-H ) :   0.9155
B(  3-C , 24-H ) :   0.9253 B(  4-C ,  5-C ) :   0.9606 B(  4-C , 19-H ) :   0.9009
B(  5-C , 18-H ) :   0.9009 B(  6-C ,  8-C ) :   0.9874 B(  6-C , 10-H ) :   0.9181
B(  6-C , 20-H ) :   0.9267 B(  7-C ,  9-C ) :   0.9874 B(  7-C , 11-H ) :   0.9181
B(  7-C , 21-H ) :   0.9267 B(  8-C , 12-H ) :   0.9181 B(  8-C , 22-H ) :   0.9267
B(  9-C , 13-H ) :   0.9181 B(  9-C , 23-H ) :   0.9267

Dispersion correction           -0.017333258
FINAL SINGLE POINT ENERGY      -391.084658781826

DIPOLE MOMENT
-------------
                                X             Y             Z
Electronic contribution:     -0.00000       0.00000       0.00000
Nuclear contribution   :      0.00000       0.00000       0.00000
                        -----------------------------------------
Total Dipole Moment    :     -0.00000       0.00000       0.00000
                        -----------------------------------------
Magnitude (a.u.)       :      0.00000
Magnitude (Debye)      :      0.00000

Rotational constants in cm-1:     0.081805     0.034150     0.025889
Rotational constants in MHz :  2452.459326  1023.804188   776.142726

                             ****ORCA TERMINATED NORMALLY****
TOTAL RUN TIME: 0 days 0 hours 2 minutes 16 seconds 772 msec
