                         Program Version 5.0.3 -  RELEASE  -
|  1> ! PBEh-3c def2/J TightSCF DefGrid3
|  2>
|  3> %maxcore 60000
|  4>
|  5> %pal
|  6> nprocs 4
|  7> end
|  8>
|  9> *xyzfile 0 1 9.xyz
| 10>
| 11>                          ****END OF INPUT****

CARTESIAN COORDINATES (ANGSTROEM)
---------------------------------
  N     -0.031429    2.494984   -0.359811
  C      1.010409    1.795267   -0.933409
  C      0.651474    0.480956   -1.125648
  C     -0.697744    0.359969   -0.641436
  C     -1.603364   -0.709763   -0.570910
  C     -2.870411   -0.487797   -0.044172
  C     -3.251137    0.792668    0.416080
  C     -2.367170    1.865104    0.352358
  C     -1.095705    1.640078   -0.175423
  H     -0.033326    3.479888   -0.169270
  H      1.940179    2.287368   -1.170455
  H     -1.350662   -1.700944   -0.923502
  H     -4.236531    0.958709    0.822833
  H     -2.671546    2.842315    0.704688
  O     -3.697646   -1.582115   -0.009328
  C     -5.003562   -1.385543    0.504824
  H     -4.979303   -1.061916    1.547777
  H     -5.561546   -0.656936   -0.087370
  H     -5.496115   -2.351229    0.441374
  C      1.522451   -0.611281   -1.659347
  C      1.931016   -1.612448   -0.565680
  N      2.574638   -0.971520    0.568211
  C      3.857050   -0.516227    0.482058
  C      4.338777    0.298376    1.666276
  H      1.007126   -1.159628   -2.452956
  H      2.429197   -0.186915   -2.091283
  H      1.056712   -2.142857   -0.189765
  H      2.627141   -2.340943   -0.977584
  H      1.985506   -0.581042    1.282190
  O      4.579349   -0.756776   -0.476357
  H      4.499202    1.325065    1.339836
  H      3.640495    0.294448    2.501195
  H      5.296474   -0.099317    1.994015

 Total Charge           Charge          ....    0
 Multiplicity           Mult            ....    1
 Number of Electrons    NEL             ....  124
 Basis Dimension        Dim             ....  287

ORBITAL ENERGIES
----------------

  NO   OCC          E(Eh)            E(eV)
   0   2.0000     -19.519875      -531.1628
   1   2.0000     -19.445495      -529.1388
   2   2.0000     -14.684403      -399.5829
   3   2.0000     -14.651407      -398.6851
   4   2.0000     -10.538959      -286.7797
   5   2.0000     -10.501952      -285.7726
   6   2.0000     -10.488213      -285.3988
   7   2.0000     -10.478889      -285.1451
   8   2.0000     -10.478566      -285.1363
   9   2.0000     -10.467075      -284.8236
  10   2.0000     -10.454915      -284.4927
  11   2.0000     -10.447067      -284.2792
  12   2.0000     -10.446687      -284.2688
  13   2.0000     -10.439762      -284.0804
  14   2.0000     -10.439455      -284.0720
  15   2.0000     -10.437074      -284.0072
  16   2.0000     -10.436536      -283.9926
  17   2.0000      -1.167724       -31.7754
  18   2.0000      -1.131365       -30.7860
  19   2.0000      -1.086854       -29.5748
  20   2.0000      -1.013425       -27.5767
  21   2.0000      -0.939163       -25.5559
  22   2.0000      -0.896505       -24.3952
  23   2.0000      -0.848348       -23.0847
  24   2.0000      -0.837718       -22.7955
  25   2.0000      -0.817727       -22.2515
  26   2.0000      -0.796444       -21.6723
  27   2.0000      -0.773113       -21.0375
  28   2.0000      -0.719776       -19.5861
  29   2.0000      -0.702497       -19.1159
  30   2.0000      -0.666378       -18.1331
  31   2.0000      -0.648551       -17.6480
  32   2.0000      -0.626876       -17.0582
  33   2.0000      -0.608771       -16.5655
  34   2.0000      -0.578424       -15.7397
  35   2.0000      -0.563311       -15.3285
  36   2.0000      -0.557791       -15.1783
  37   2.0000      -0.530350       -14.4316
  38   2.0000      -0.529182       -14.3998
  39   2.0000      -0.526632       -14.3304
  40   2.0000      -0.509218       -13.8565
  41   2.0000      -0.505052       -13.7432
  42   2.0000      -0.493621       -13.4321
  43   2.0000      -0.489936       -13.3318
  44   2.0000      -0.473471       -12.8838
  45   2.0000      -0.467464       -12.7203
  46   2.0000      -0.457382       -12.4460
  47   2.0000      -0.454496       -12.3675
  48   2.0000      -0.449920       -12.2430
  49   2.0000      -0.443074       -12.0567
  50   2.0000      -0.426024       -11.5927
  51   2.0000      -0.416727       -11.3397
  52   2.0000      -0.413957       -11.2644
  53   2.0000      -0.399094       -10.8599
  54   2.0000      -0.393722       -10.7137
  55   2.0000      -0.375068       -10.2061
  56   2.0000      -0.353367        -9.6156
  57   2.0000      -0.320461        -8.7202
  58   2.0000      -0.301917        -8.2156
  59   2.0000      -0.291282        -7.9262
  60   2.0000      -0.250073        -6.8048
  61   2.0000      -0.234907        -6.3921
  62   0.0000       0.002729         0.0743
  63   0.0000       0.056685         1.5425
  64   0.0000       0.069143         1.8815
  65   0.0000       0.092256         2.5104
  66   0.0000       0.124892         3.3985

MULLIKEN ATOMIC CHARGES
-----------------------
   0 N :   -0.703753
   1 C :   -0.061003
   2 C :    0.020596
   3 C :    0.074069
   4 C :   -0.446866
   5 C :    0.403162
   6 C :   -0.365695
   7 C :   -0.258210
   8 C :    0.359038
   9 H :    0.357404
  10 H :    0.244851
  11 H :    0.218028
  12 H :    0.231160
  13 H :    0.214128
  14 O :   -0.468970
  15 C :   -0.403974
  16 H :    0.202651
  17 H :    0.204649
  18 H :    0.239943
  19 C :   -0.543177
  20 C :   -0.288416
  21 N :   -0.616278
  22 C :    0.518022
  23 C :   -0.748131
  24 H :    0.229596
  25 H :    0.257368
  26 H :    0.226973
  27 H :    0.257796
  28 H :    0.360819
  29 O :   -0.434177
  30 H :    0.245771
  31 H :    0.212760
  32 H :    0.259867
Sum of atomic charges:   -0.0000000

LOEWDIN ATOMIC CHARGES
----------------------
   0 N :   -0.164427
   1 C :   -0.081473
   2 C :   -0.109322
   3 C :   -0.052536
   4 C :   -0.162866
   5 C :    0.059016
   6 C :   -0.193310
   7 C :   -0.150315
   8 C :    0.005094
   9 H :    0.260950
  10 H :    0.137745
  11 H :    0.144701
  12 H :    0.140188
  13 H :    0.136436
  14 O :   -0.194342
  15 C :   -0.180562
  16 H :    0.111389
  17 H :    0.112478
  18 H :    0.130316
  19 C :   -0.236541
  20 C :   -0.144112
  21 N :   -0.238570
  22 C :    0.104348
  23 C :   -0.390591
  24 H :    0.135839
  25 H :    0.147280
  26 H :    0.125198
  27 H :    0.142548
  28 H :    0.256091
  29 O :   -0.285147
  30 H :    0.151016
  31 H :    0.127059
  32 H :    0.156421

  Mayer bond orders larger than 0.100000
B(  0-N ,  1-C ) :   1.1308 B(  0-N ,  8-C ) :   1.0045 B(  0-N ,  9-H ) :   0.8341
B(  1-C ,  2-C ) :   1.5696 B(  1-C , 10-H ) :   0.9074 B(  2-C ,  3-C ) :   1.2277
B(  2-C , 19-C ) :   0.9554 B(  3-C ,  4-C ) :   1.2888 B(  3-C ,  8-C ) :   1.2297
B(  4-C ,  5-C ) :   1.4380 B(  4-C ,  7-C ) :   0.1018 B(  4-C , 11-H ) :   0.9259
B(  5-C ,  6-C ) :   1.2845 B(  5-C , 14-O ) :   1.0130 B(  6-C ,  7-C ) :   1.4700
B(  6-C , 12-H ) :   0.9054 B(  7-C ,  8-C ) :   1.3186 B(  7-C , 13-H ) :   0.9208
B( 14-O , 15-C ) :   0.9577 B( 15-C , 16-H ) :   0.9078 B( 15-C , 17-H ) :   0.9075
B( 15-C , 18-H ) :   0.9235 B( 19-C , 20-C ) :   0.9559 B( 19-C , 24-H ) :   0.9137
B( 19-C , 25-H ) :   0.9111 B( 20-C , 21-N ) :   0.9541 B( 20-C , 26-H ) :   0.9156
B( 20-C , 27-H ) :   0.9033 B( 21-N , 22-C ) :   1.1440 B( 21-N , 28-H ) :   0.8230
B( 22-C , 23-C ) :   0.9270 B( 22-C , 29-O ) :   1.9803 B( 23-C , 30-H ) :   0.9133
B( 23-C , 31-H ) :   0.9220 B( 23-C , 32-H ) :   0.9118

Dispersion correction           -0.021520916
FINAL SINGLE POINT ENERGY      -763.329007289479

DIPOLE MOMENT
-------------
                                X             Y             Z
Electronic contribution:     -0.99181       2.71735      -3.25038
Nuclear contribution   :     -0.27710      -1.42508       4.33880
                        -----------------------------------------
Total Dipole Moment    :     -1.26891       1.29227       1.08843
                        -----------------------------------------
Magnitude (a.u.)       :      2.11300
Magnitude (Debye)      :      5.37081

Rotational constants in cm-1:     0.030736     0.007887     0.007077
Rotational constants in MHz :   921.439038   236.444845   212.167883

                             ****ORCA TERMINATED NORMALLY****
TOTAL RUN TIME: 0 days 0 hours 4 minutes 7 seconds 983 msec
