                         Program Version 5.0.3 -  RELEASE  -
|  1> ! PBEh-3c def2/J TightSCF DefGrid3
|  2>
|  3> %maxcore 60000
|  4>
|  5> %pal
|  6> nprocs 4
|  7> end
|  8>
|  9> *xyzfile 0 2 P11.xyz
| 10>
| 11>                          ****END OF INPUT****

CARTESIAN COORDINATES (ANGSTROEM)
---------------------------------
  C      1.226257    0.000000   -0.164372
  C      0.000000    0.000000    0.471927
  C     -1.226257    0.000000   -0.164372
  H      1.296455    0.000000   -1.245999
  H      2.152279    0.000000    0.394698
  H      0.000000    0.000000    1.559419
  H     -1.296455    0.000000   -1.245999
  H     -2.152279    0.000000    0.394698

 Total Charge           Charge          ....    0
 Multiplicity           Mult            ....    2
 Number of Electrons    NEL             ....   23
 Basis Dimension        Dim             ....   55

ORBITAL ENERGIES
----------------
                 SPIN UP ORBITALS
  NO   OCC          E(Eh)            E(eV)
   0   1.0000     -10.447419      -284.2887
   1   1.0000     -10.447214      -284.2832
   2   1.0000     -10.446396      -284.2609
   3   1.0000      -0.887634       -24.1538
   4   1.0000      -0.767489       -20.8844
   5   1.0000      -0.627084       -17.0638
   6   1.0000      -0.542083       -14.7508
   7   1.0000      -0.496936       -13.5223
   8   1.0000      -0.441763       -12.0210
   9   1.0000      -0.412914       -11.2359
  10   1.0000      -0.375682       -10.2228
  11   1.0000      -0.245538        -6.6814
  12   0.0000       0.072185         1.9642
  13   0.0000       0.157914         4.2971
  14   0.0000       0.191358         5.2071
  15   0.0000       0.195539         5.3209
  16   0.0000       0.242669         6.6034

                 SPIN DOWN ORBITALS
  NO   OCC          E(Eh)            E(eV)
   0   1.0000     -10.451897      -284.4106
   1   1.0000     -10.436411      -283.9892
   2   1.0000     -10.436368      -283.9880
   3   1.0000      -0.875066       -23.8118
   4   1.0000      -0.733224       -19.9520
   5   1.0000      -0.618984       -16.8434
   6   1.0000      -0.536062       -14.5870
   7   1.0000      -0.489632       -13.3236
   8   1.0000      -0.434443       -11.8218
   9   1.0000      -0.409888       -11.1536
  10   1.0000      -0.333715        -9.0808
  11   0.0000      -0.040496        -1.1019
  12   0.0000       0.104529         2.8444
  13   0.0000       0.162435         4.4201
  14   0.0000       0.196605         5.3499
  15   0.0000       0.207022         5.6334

MULLIKEN ATOMIC CHARGES AND SPIN POPULATIONS
--------------------------------------------
   0 C :   -0.477282    0.765453
   1 C :   -0.138520   -0.378844
   2 C :   -0.477282    0.765453
   3 H :    0.215945   -0.041648
   4 H :    0.220982   -0.043320
   5 H :    0.219231    0.017872
   6 H :    0.215945   -0.041648
   7 H :    0.220982   -0.043320
Sum of atomic charges         :   -0.0000000

LOEWDIN ATOMIC CHARGES AND SPIN POPULATIONS
-------------------------------------------
   0 C :   -0.246359    0.651795
   1 C :   -0.167613   -0.231102
   2 C :   -0.246359    0.651795
   3 H :    0.130916   -0.019761
   4 H :    0.133264   -0.020536
   5 H :    0.131970    0.008107
   6 H :    0.130916   -0.019761
   7 H :    0.133264   -0.020536

  Mayer bond orders larger than 0.100000
B(  0-C ,  1-C ) :   1.4354 B(  0-C ,  2-C ) :   0.1024 B(  0-C ,  3-H ) :   0.9283
B(  0-C ,  4-H ) :   0.9262 B(  1-C ,  2-C ) :   1.4354 B(  1-C ,  5-H ) :   0.9191
B(  2-C ,  6-H ) :   0.9283 B(  2-C ,  7-H ) :   0.9262

Dispersion correction           -0.002360849
FINAL SINGLE POINT ENERGY      -116.992929374124

DIPOLE MOMENT
-------------
                                X             Y             Z
Electronic contribution:     -0.00000       0.00000       0.33158
Nuclear contribution   :      0.00000       0.00000      -0.31426
                        -----------------------------------------
Total Dipole Moment    :     -0.00000       0.00000       0.01732
                        -----------------------------------------
Magnitude (a.u.)       :      0.01732
Magnitude (Debye)      :      0.04403

Rotational constants in cm-1:     1.840592     0.345095     0.290609
Rotational constants in MHz : 55179.571475 10345.700905  8712.231507

                             ****ORCA TERMINATED NORMALLY****
TOTAL RUN TIME: 0 days 0 hours 1 minutes 43 seconds 400 msec
