                         Program Version 5.0.3 -  RELEASE  -
|  1> ! PBEh-3c def2/J TightSCF DefGrid3
|  2>
|  3> %maxcore 60000
|  4>
|  5> %pal
|  6> nprocs 4
|  7> end
|  8>
|  9> *xyzfile 0 1 SER_xak.xyz
| 10>
| 11>                          ****END OF INPUT****

CARTESIAN COORDINATES (ANGSTROEM)
---------------------------------
  N     -1.168755   -0.531933    0.246896
  C     -0.023663    0.229218   -0.174820
  C      1.193156   -0.687834   -0.061440
  O      1.075578   -1.884184    0.198125
  C      0.123156    1.501656    0.664777
  O      1.071131    2.405784    0.094940
  H     -0.964892   -1.488323    0.503621
  H     -0.150503    0.535802   -1.218128
  H     -0.856864    1.966169    0.752995
  H      0.489808    1.251784    1.658847
  H      0.627917    2.857743   -0.630162
  N      2.377031   -0.082212   -0.270599
  H      2.374085    0.925512   -0.338567
  C      3.617027   -0.817718   -0.135863
  H      4.417438   -0.246044   -0.595268
  H      3.864078   -1.005977    0.908545
  H      3.522734   -1.775860   -0.638640
  C     -2.416099   -0.158439   -0.148171
  O     -2.625193    0.908562   -0.717096
  C     -3.518221   -1.137835    0.168555
  H     -4.333736   -0.601785    0.646178
  H     -3.189870   -1.950459    0.811166
  H     -3.894696   -1.549317   -0.765797

 Total Charge           Charge          ....    0
 Multiplicity           Mult            ....    1
 Number of Electrons    NEL             ....   86
 Basis Dimension        Dim             ....  189

ORBITAL ENERGIES
----------------

  NO   OCC          E(Eh)            E(eV)
   0   2.0000     -19.517120      -531.0878
   1   2.0000     -19.468567      -529.7666
   2   2.0000     -19.457096      -529.4545
   3   2.0000     -14.662806      -398.9952
   4   2.0000     -14.659186      -398.8967
   5   2.0000     -10.552609      -287.1511
   6   2.0000     -10.548988      -287.0525
   7   2.0000     -10.497255      -285.6448
   8   2.0000     -10.491487      -285.4879
   9   2.0000     -10.469515      -284.8900
  10   2.0000     -10.440771      -284.1078
  11   2.0000      -1.158207       -31.5164
  12   2.0000      -1.147802       -31.2333
  13   2.0000      -1.140870       -31.0447
  14   2.0000      -1.027522       -27.9603
  15   2.0000      -1.024969       -27.8908
  16   2.0000      -0.871777       -23.7223
  17   2.0000      -0.819240       -22.2927
  18   2.0000      -0.789585       -21.4857
  19   2.0000      -0.731448       -19.9037
  20   2.0000      -0.665493       -18.1090
  21   2.0000      -0.652373       -17.7520
  22   2.0000      -0.619768       -16.8647
  23   2.0000      -0.574465       -15.6320
  24   2.0000      -0.562054       -15.2943
  25   2.0000      -0.544385       -14.8135
  26   2.0000      -0.533021       -14.5042
  27   2.0000      -0.515868       -14.0375
  28   2.0000      -0.511194       -13.9103
  29   2.0000      -0.502095       -13.6627
  30   2.0000      -0.484977       -13.1969
  31   2.0000      -0.470327       -12.7982
  32   2.0000      -0.456227       -12.4146
  33   2.0000      -0.454587       -12.3699
  34   2.0000      -0.451295       -12.2804
  35   2.0000      -0.430062       -11.7026
  36   2.0000      -0.422055       -11.4847
  37   2.0000      -0.396151       -10.7798
  38   2.0000      -0.363194        -9.8830
  39   2.0000      -0.322550        -8.7770
  40   2.0000      -0.314293        -8.5524
  41   2.0000      -0.308303        -8.3894
  42   2.0000      -0.300329        -8.1724
  43   0.0000       0.049604         1.3498
  44   0.0000       0.062420         1.6985
  45   0.0000       0.110319         3.0019
  46   0.0000       0.141389         3.8474
  47   0.0000       0.157455         4.2846

MULLIKEN ATOMIC CHARGES
-----------------------
   0 N :   -0.646447
   1 C :   -0.201731
   2 C :    0.536641
   3 O :   -0.447518
   4 C :   -0.190990
   5 O :   -0.635348
   6 H :    0.387711
   7 H :    0.261695
   8 H :    0.254448
   9 H :    0.227632
  10 H :    0.430803
  11 N :   -0.643688
  12 H :    0.392120
  13 C :   -0.488785
  14 H :    0.220382
  15 H :    0.228807
  16 H :    0.249239
  17 C :    0.522958
  18 O :   -0.446296
  19 C :   -0.749220
  20 H :    0.258742
  21 H :    0.223160
  22 H :    0.255685
Sum of atomic charges:   -0.0000000

LOEWDIN ATOMIC CHARGES
----------------------
   0 N :   -0.231561
   1 C :   -0.115628
   2 C :    0.109848
   3 O :   -0.289795
   4 C :   -0.098042
   5 O :   -0.407377
   6 H :    0.269811
   7 H :    0.143518
   8 H :    0.133400
   9 H :    0.126936
  10 H :    0.319135
  11 N :   -0.242939
  12 H :    0.264877
  13 C :   -0.251492
  14 H :    0.127304
  15 H :    0.125296
  16 H :    0.141676
  17 C :    0.107730
  18 O :   -0.291713
  19 C :   -0.387275
  20 H :    0.156642
  21 H :    0.132854
  22 H :    0.156796

  Mayer bond orders larger than 0.100000
B(  0-N ,  1-C ) :   0.9359 B(  0-N ,  6-H ) :   0.7687 B(  0-N , 17-C ) :   1.1513
B(  1-C ,  2-C ) :   0.9219 B(  1-C ,  4-C ) :   0.9167 B(  1-C ,  7-H ) :   0.8789
B(  2-C ,  3-O ) :   1.9442 B(  2-C , 11-N ) :   1.1874 B(  4-C ,  5-O ) :   0.9715
B(  4-C ,  8-H ) :   0.8956 B(  4-C ,  9-H ) :   0.9094 B(  5-O , 10-H ) :   0.7809
B( 11-N , 12-H ) :   0.7552 B( 11-N , 13-C ) :   0.9542 B( 13-C , 14-H ) :   0.9265
B( 13-C , 15-H ) :   0.9154 B( 13-C , 16-H ) :   0.9114 B( 17-C , 18-O ) :   1.9522
B( 17-C , 19-C ) :   0.9312 B( 19-C , 20-H ) :   0.9117 B( 19-C , 21-H ) :   0.9195
B( 19-C , 22-H ) :   0.9088

Dispersion correction           -0.012352698
FINAL SINGLE POINT ENERGY      -569.849676859406

DIPOLE MOMENT
-------------
                                X             Y             Z
Electronic contribution:     -1.32921       1.20739      -1.15938
Nuclear contribution   :      1.86618      -1.01921       1.17982
                        -----------------------------------------
Total Dipole Moment    :      0.53698       0.18818       0.02044
                        -----------------------------------------
Magnitude (a.u.)       :      0.56936
Magnitude (Debye)      :      1.44720

Rotational constants in cm-1:     0.060633     0.022046     0.017021
Rotational constants in MHz :  1817.736877   660.934351   510.280261

                             ****ORCA TERMINATED NORMALLY****
TOTAL RUN TIME: 0 days 0 hours 2 minutes 19 seconds 811 msec
