                         Program Version 5.0.3 -  RELEASE  -
|  1> ! PBEh-3c def2/J TightSCF DefGrid3
|  2>
|  3> %maxcore 60000
|  4>
|  5> %pal
|  6> nprocs 4
|  7> end
|  8>
|  9> *xyzfile 0 1 41A.xyz
| 10>
| 11>                          ****END OF INPUT****

CARTESIAN COORDINATES (ANGSTROEM)
---------------------------------
  N     -0.025454   -1.304486    0.000000
  H     -0.039615   -2.315447    0.000000
  C     -1.276985   -0.671128    0.000000
  O     -2.302989   -1.328988    0.000000
  C     -1.187242    0.778693    0.000000
  H     -2.097119    1.353514    0.000000
  C      0.022795    1.374336    0.000000
  H      0.141388    2.447744    0.000000
  N      1.185908    0.651967    0.000000
  H      2.082795    1.108541    0.000000
  C      1.228983   -0.731692    0.000000
  O      2.267536   -1.363054    0.000000

 Total Charge           Charge          ....    0
 Multiplicity           Mult            ....    1
 Number of Electrons    NEL             ....   58
 Basis Dimension        Dim             ....  128

ORBITAL ENERGIES
----------------

  NO   OCC          E(Eh)            E(eV)
   0   2.0000     -19.483793      -530.1810
   1   2.0000     -19.477284      -530.0038
   2   2.0000     -14.718301      -400.5053
   3   2.0000     -14.697721      -399.9453
   4   2.0000     -10.610115      -288.7159
   5   2.0000     -10.574525      -287.7475
   6   2.0000     -10.538973      -286.7800
   7   2.0000     -10.467764      -284.8423
   8   2.0000      -1.197524       -32.5863
   9   2.0000      -1.158917       -31.5357
  10   2.0000      -1.094243       -29.7759
  11   2.0000      -1.035195       -28.1691
  12   2.0000      -0.900142       -24.4941
  13   2.0000      -0.780578       -21.2406
  14   2.0000      -0.750929       -20.4338
  15   2.0000      -0.678531       -18.4638
  16   2.0000      -0.637165       -17.3381
  17   2.0000      -0.594248       -16.1703
  18   2.0000      -0.553264       -15.0551
  19   2.0000      -0.545020       -14.8307
  20   2.0000      -0.522843       -14.2273
  21   2.0000      -0.491407       -13.3719
  22   2.0000      -0.486472       -13.2376
  23   2.0000      -0.469314       -12.7707
  24   2.0000      -0.431140       -11.7319
  25   2.0000      -0.362156        -9.8548
  26   2.0000      -0.341772        -9.3001
  27   2.0000      -0.329295        -8.9606
  28   2.0000      -0.300747        -8.1838
  29   0.0000      -0.022798        -0.6204
  30   0.0000       0.038876         1.0579
  31   0.0000       0.096072         2.6143
  32   0.0000       0.153106         4.1662
  33   0.0000       0.160539         4.3685

MULLIKEN ATOMIC CHARGES
-----------------------
   0 N :   -0.723823
   1 H :    0.399115
   2 C :    0.567094
   3 O :   -0.391052
   4 C :   -0.452767
   5 H :    0.266712
   6 C :    0.084860
   7 H :    0.272776
   8 N :   -0.679498
   9 H :    0.393204
  10 C :    0.677922
  11 O :   -0.414543
Sum of atomic charges:    0.0000000

LOEWDIN ATOMIC CHARGES
----------------------
   0 N :   -0.205141
   1 H :    0.286522
   2 C :    0.123820
   3 O :   -0.241257
   4 C :   -0.240624
   5 H :    0.163825
   6 C :   -0.013298
   7 H :    0.150059
   8 N :   -0.189681
   9 H :    0.282061
  10 C :    0.146036
  11 O :   -0.262323

  Mayer bond orders larger than 0.100000
B(  0-N ,  1-H ) :   0.7984 B(  0-N ,  2-C ) :   0.9786 B(  0-N , 10-C ) :   1.0650
B(  2-C ,  3-O ) :   2.0403 B(  2-C ,  4-C ) :   1.0564 B(  4-C ,  5-H ) :   0.9063
B(  4-C ,  6-C ) :   1.6440 B(  6-C ,  7-H ) :   0.8991 B(  6-C ,  8-N ) :   1.0762
B(  8-N ,  9-H ) :   0.8080 B(  8-N , 10-C ) :   1.0242 B( 10-C , 11-O ) :   2.0467

Dispersion correction           -0.006237274
FINAL SINGLE POINT ENERGY      -413.938377754763

DIPOLE MOMENT
-------------
                                X             Y             Z
Electronic contribution:      0.50939      -2.08875      -0.00000
Nuclear contribution   :      0.04687       3.76400       0.00000
                        -----------------------------------------
Total Dipole Moment    :      0.55626       1.67525      -0.00000
                        -----------------------------------------
Magnitude (a.u.)       :      1.76519
Magnitude (Debye)      :      4.48675

Rotational constants in cm-1:     0.130259     0.067349     0.044395
Rotational constants in MHz :  3905.079848  2019.064852  1330.927900

                             ****ORCA TERMINATED NORMALLY****
TOTAL RUN TIME: 0 days 0 hours 1 minutes 28 seconds 100 msec
