                         Program Version 5.0.3 -  RELEASE  -
|  1> ! PBEh-3c def2/J TightSCF DefGrid3
|  2>
|  3> %maxcore 60000
|  4>
|  5> %pal
|  6> nprocs 4
|  7> end
|  8>
|  9> *xyzfile 0 1 CH4.xyz
| 10>
| 11>                          ****END OF INPUT****

CARTESIAN COORDINATES (ANGSTROEM)
---------------------------------
  C      0.000000   -0.000000    0.000000
  H     -0.630889    0.630889    0.630889
  H      0.630889   -0.630889    0.630889
  H     -0.630889   -0.630889   -0.630889
  H      0.630889    0.630889   -0.630889

 Total Charge           Charge          ....    0
 Multiplicity           Mult            ....    1
 Number of Electrons    NEL             ....   10
 Basis Dimension        Dim             ....   23

ORBITAL ENERGIES
----------------

  NO   OCC          E(Eh)            E(eV)
   0   2.0000     -10.416365      -283.4437
   1   2.0000      -0.773239       -21.0409
   2   2.0000      -0.444211       -12.0876
   3   2.0000      -0.444211       -12.0876
   4   2.0000      -0.444211       -12.0876
   5   0.0000       0.173255         4.7145
   6   0.0000       0.217235         5.9113
   7   0.0000       0.217235         5.9113
   8   0.0000       0.217235         5.9113
   9   0.0000       0.508950        13.8492

MULLIKEN ATOMIC CHARGES
-----------------------
   0 C :   -0.877683
   1 H :    0.219421
   2 H :    0.219421
   3 H :    0.219421
   4 H :    0.219421
Sum of atomic charges:    0.0000000

LOEWDIN ATOMIC CHARGES
----------------------
   0 C :   -0.522136
   1 H :    0.130534
   2 H :    0.130534
   3 H :    0.130534
   4 H :    0.130534

  Mayer bond orders larger than 0.100000
B(  0-C ,  1-H ) :   0.9368 B(  0-C ,  2-H ) :   0.9368 B(  0-C ,  3-H ) :   0.9368
B(  0-C ,  4-H ) :   0.9368

Dispersion correction           -0.000682602
FINAL SINGLE POINT ENERGY       -40.426529136035

DIPOLE MOMENT
-------------
                                X             Y             Z
Electronic contribution:     -0.00000      -0.00000      -0.00000
Nuclear contribution   :      0.00000       0.00000       0.00000
                        -----------------------------------------
Total Dipole Moment    :     -0.00000      -0.00000      -0.00000
                        -----------------------------------------
Magnitude (a.u.)       :      0.00000
Magnitude (Debye)      :      0.00000

Rotational constants in cm-1:     5.252186     5.252186     5.252186
Rotational constants in MHz : 157456.560831 157456.560831 157456.560831

                             ****ORCA TERMINATED NORMALLY****
TOTAL RUN TIME: 0 days 0 hours 0 minutes 26 seconds 61 msec
